      -----------------------------------------------------------      
     |                   =====================                   |     
     |                           x T B                           |     
     |                   =====================                   |     
     |                         S. Grimme                         |     
     |          Mulliken Center for Theoretical Chemistry        |     
     |                    University of Bonn                     |     
      -----------------------------------------------------------      

   * xtb version 6.7.1 (edcfbbe) compiled by 'conda@c0858423619e' on 2025-09-04

   xtb is free software: you can redistribute it and/or modify it under
   the terms of the GNU Lesser General Public License as published by
   the Free Software Foundation, either version 3 of the License, or
   (at your option) any later version.
   
   xtb is distributed in the hope that it will be useful,
   but WITHOUT ANY WARRANTY; without even the implied warranty of
   MERCHANTABILITY or FITNESS FOR A PARTICULAR PURPOSE.  See the
   GNU Lesser General Public License for more details.
   
   Cite this work as:
   * C. Bannwarth, E. Caldeweyher, S. Ehlert, A. Hansen, P. Pracht,
     J. Seibert, S. Spicher, S. Grimme, WIREs Comput. Mol. Sci., 2020, 11,
     e01493. DOI: 10.1002/wcms.1493
   
   for GFN2-xTB:
   * C. Bannwarth, S. Ehlert and S. Grimme., J. Chem. Theory Comput., 2019,
     15, 1652-1671. DOI: 10.1021/acs.jctc.8b01176
   for GFN1-xTB:
   * S. Grimme, C. Bannwarth, P. Shushkov, J. Chem. Theory Comput., 2017,
     13, 1989-2009. DOI: 10.1021/acs.jctc.7b00118
   for GFN0-xTB:
   * P. Pracht, E. Caldeweyher, S. Ehlert, S. Grimme, ChemRxiv, 2019, preprint.
     DOI: 10.26434/chemrxiv.8326202.v1
   for GFN-FF:
   * S. Spicher and S. Grimme, Angew. Chem. Int. Ed., 2020, 59, 15665-15673.
     DOI: 10.1002/anie.202004239
   
   for ALPB and GBSA implicit solvation:
   * S. Ehlert, M. Stahn, S. Spicher, S. Grimme, J. Chem. Theory Comput.,
     2021, 17, 4250-4261. DOI: 10.1021/acs.jctc.1c00471
   
   for ddCOSMO and CPCM-X implicit solvation:
   * M. Stahn, S. Ehlert, S. Grimme, J. Phys. Chem. A,
     2023, XX, XXXX-XXXX. DOI: 10.1021/acs.jpca.3c04382
   
   for DFT-D4:
   * E. Caldeweyher, C. Bannwarth and S. Grimme, J. Chem. Phys., 2017,
     147, 034112. DOI: 10.1063/1.4993215
   * E. Caldeweyher, S. Ehlert, A. Hansen, H. Neugebauer, S. Spicher,
     C. Bannwarth and S. Grimme, J. Chem. Phys., 2019, 150, 154122.
     DOI: 10.1063/1.5090222
   * E. Caldeweyher, J.-M. Mewes, S. Ehlert and S. Grimme, Phys. Chem. Chem. Phys.
     2020, 22, 8499-8512. DOI: 10.1039/D0CP00502A
   
   for sTDA-xTB:
   * S. Grimme and C. Bannwarth, J. Chem. Phys., 2016, 145, 054103.
     DOI: 10.1063/1.4959605
   
   in the mass-spec context:
   * V. Asgeirsson, C. Bauer and S. Grimme, Chem. Sci., 2017, 8, 4879.
     DOI: 10.1039/c7sc00601b
   * J. Koopman and S. Grimme, ACS Omega 2019, 4, 12, 15120-15133.
     DOI: 10.1021/acsomega.9b02011
   
   for metadynamics refer to:
   * S. Grimme, J. Chem. Theory Comput., 2019, 155, 2847-2862
     DOI: 10.1021/acs.jctc.9b00143
   
   for SPH calculations refer to:
   * S. Spicher and S. Grimme, J. Chem. Theory Comput., 2021, 17, 1701-1714
     DOI: 10.1021/acs.jctc.0c01306
   
   for ONIOM refer to:
   * C. Plett, A. Katbashev, S. Ehlert, S. Grimme, M. Bursch,
     Phys. Chem. Chem. Phys., 2023, 25, 17860-17868. DOI: 10.1039/D3CP02178E
   
   for DIPRO refer to:
   * J. Kohn, N. Gildemeister, S. Grimme, D. Fazzi, A. Hansen,
     J. Chem. Phys., 2023, just accepted.
   
   for PTB refer to:
   * S. Grimme, M. Mueller, A. Hansen, J. Chem. Phys., 2023, 158, 124111.
     DOI: 10.1063/5.0137838
   
   with help from (in alphabetical order)
   P. Atkinson, C. Bannwarth, F. Bohle, G. Brandenburg, E. Caldeweyher
   M. Checinski, S. Dohm, S. Ehlert, S. Ehrlich, I. Gerasimov, C. Hölzer
   A. Katbashev, J. Kohn, J. Koopman, C. Lavigne, S. Lehtola, F. März, M. Müller,
   F. Musil, H. Neugebauer, J. Pisarek, C. Plett, P. Pracht, F. Pultar,
   J. Seibert, P. Shushkov, S. Spicher, M. Stahn, M. Steiner, T. Strunk,
   J. Stückrath, T. Rose, and J. Unsleber
   
 * started run on 2025/09/15 at 14:21:08.410     
   ID    Z sym.   atoms
    1    6 C      1-16
    2    1 H      17-35

           -------------------------------------------------
          |                Calculation Setup                |
           -------------------------------------------------

          program call               : /home/paufv/miniforge3/envs/htvs/bin/xtb gfn_opt.xyz --opt normal --parallel 4 --chrg 0 --uhf 0 --gfn2 --input xtb.inp
          coordinate file            : gfn_opt.xyz
          omp threads                :                     4

########################################################################
[WARNING] Please study the warnings concerning your input carefully
-3- set_opt: the key 'uhf' is not recognized by opt
-2- set_opt: the key 'charge' is not recognized by opt
-1- set_opt: the key 'method' is not recognized by opt
########################################################################

           -------------------------------------------------
          |                 G F N 2 - x T B                 |
           -------------------------------------------------

        Reference                      10.1021/acs.jctc.8b01176
      * Hamiltonian:
        H0-scaling (s, p, d)           1.850000    2.230000    2.230000
        zeta-weighting                 0.500000
      * Dispersion:
        s8                             2.700000
        a1                             0.520000
        a2                             5.000000
        s9                             5.000000
      * Repulsion:
        kExp                           1.500000    1.000000
        rExp                           1.000000
      * Coulomb:
        alpha                          2.000000
        third order                    shell-resolved
        anisotropic                    true
        a3                             3.000000
        a5                             4.000000
        cn-shift                       1.200000
        cn-exp                         4.000000
        max-rad                        5.000000

q/qsh data taken from xtbrestart
CAMM data taken from xtbrestart

          ...................................................
          :                      SETUP                      :
          :.................................................:
          :  # basis functions                  83          :
          :  # atomic orbitals                  83          :
          :  # shells                           51          :
          :  # electrons                        83          :
          :  max. iterations                   250          :
          :  Hamiltonian                  GFN2-xTB          :
          :  restarted?                       true          :
          :  GBSA solvation                  false          :
          :  PC potential                    false          :
          :  electronic temp.          300.0000000     K    :
          :  accuracy                    1.0000000          :
          :  -> integral cutoff          0.2500000E+02      :
          :  -> integral neglect         0.1000000E-07      :
          :  -> SCF convergence          0.1000000E-05 Eh   :
          :  -> wf. convergence          0.1000000E-03 e    :
          :  Broyden damping             0.4000000          :
          :  net charge                          0          :
          :  unpaired electrons                  0          :
          ...................................................

 iter      E             dE          RMSdq      gap      omega  full diag
   1    -44.6026057 -0.446026E+02  0.600E-01    2.22       0.0  T
   2    -44.6026599 -0.542323E-04  0.361E-01    2.21       1.0  T
   3    -44.6019529  0.707013E-03  0.141E-01    2.22       1.0  T
   4    -44.6027348 -0.781907E-03  0.180E-02    2.22       1.0  T
   5    -44.6027419 -0.706913E-05  0.756E-03    2.21       2.2  T
   6    -44.6027419 -0.566709E-07  0.298E-03    2.21       5.7  T
   7    -44.6027421 -0.218903E-06  0.113E-03    2.21      15.0  T
   8    -44.6027422 -0.223396E-07  0.428E-04    2.21      39.5  T
   9    -44.6027422 -0.102875E-08  0.218E-04    2.21      77.4  T

   *** convergence criteria satisfied after 9 iterations ***

         #    Occupation            Energy/Eh            Energy/eV
      -------------------------------------------------------------
         1        2.0000           -0.6367776             -17.3276
       ...           ...                  ...                  ...
        36        2.0000           -0.4161774             -11.3248
        37        2.0000           -0.4135351             -11.2529
        38        2.0000           -0.4031004             -10.9689
        39        2.0000           -0.3963799             -10.7860
        40        2.0000           -0.3943236             -10.7301
        41        2.0000           -0.3853074             -10.4847
        42        1.0000           -0.3019124              -8.2155 (HOMO)
        43                         -0.2206159              -6.0033 (LUMO)
        44                         -0.2189686              -5.9584
        45                         -0.2010968              -5.4721
        46                         -0.1364809              -3.7138
        47                         -0.0956611              -2.6031
       ...                                ...                  ...
        83                          0.6349306              17.2773
      -------------------------------------------------------------
                  HL-Gap            0.0812965 Eh            2.2122 eV
             Fermi-level           -0.3024370 Eh           -8.2297 eV

 SCC (total)                   0 d,  0 h,  0 min,  0.023 sec
 SCC setup                      ...        0 min,  0.000 sec (  0.509%)
 Dispersion                     ...        0 min,  0.000 sec (  1.168%)
 classical contributions        ...        0 min,  0.000 sec (  0.186%)
 integral evaluation            ...        0 min,  0.002 sec (  7.089%)
 iterations                     ...        0 min,  0.018 sec ( 75.823%)
 molecular gradient             ...        0 min,  0.003 sec ( 14.132%)
 printout                       ...        0 min,  0.000 sec (  1.051%)

         :::::::::::::::::::::::::::::::::::::::::::::::::::::
         ::                     SUMMARY                     ::
         :::::::::::::::::::::::::::::::::::::::::::::::::::::
         :: total energy             -43.865370126610 Eh    ::
         :: gradient norm              0.067063240518 Eh/a0 ::
         :: HOMO-LUMO gap              2.212190196517 eV    ::
         ::.................................................::
         :: SCC energy               -44.602222673002 Eh    ::
         :: -> isotropic ES            0.004153146866 Eh    ::
         :: -> anisotropic ES          0.009526046859 Eh    ::
         :: -> anisotropic XC          0.029933087922 Eh    ::
         :: -> dispersion             -0.035021829393 Eh    ::
         :: repulsion energy           0.736852546392 Eh    ::
         :: add. restraining           0.000000000000 Eh    ::
         :: total charge              -0.000000000000 e     ::
         :::::::::::::::::::::::::::::::::::::::::::::::::::::

      ----------------------------------------------------------- 
     |                   =====================                   |
     |                        A N C O P T                        |
     |                   =====================                   |
     |               Approximate Normal Coordinate               |
     |                Rational Function Optimizer                |
      ----------------------------------------------------------- 
      ----------------------------------------------------------- 
     |                   =====================                   |
     |                        A N C O P T                        |
     |                   =====================                   |
     |               Approximate Normal Coordinate               |
     |                Rational Function Optimizer                |
      ----------------------------------------------------------- 

          ...................................................
          :                      SETUP                      :
          :.................................................:
          :   optimization level            normal          :
          :   max. optcycles                   200          :
          :   ANC micro-cycles                  20          :
          :   degrees of freedom                99          :
          :.................................................:
          :   RF solver                   davidson          :
          :   write xtbopt.log                true          :
          :   linear?                        false          :
          :   energy convergence         0.5000000E-05 Eh   :
          :   grad. convergence          0.1000000E-02 Eh/α :
          :   maxmium RF displ.          1.0000000          :
          :   Hlow (freq-cutoff)         0.1000000E-01      :
          :   Hmax (freq-cutoff)         5.0000000          :
          :   S6 in model hess.         20.0000000          :
          ...................................................

generating ANC from exact Hessian ...
Using Lindh-Hessian (1995)
 Shifting diagonal of input Hessian by    9.4144235114471536E-003
 Lowest  eigenvalues of input Hessian
    0.000000    0.000000    0.000000    0.000000    0.000000    0.000000
    0.010000    0.010251    0.010437    0.011304    0.011884    0.012825
    0.014119    0.014974    0.015849    0.017513    0.018505    0.020656
 Highest eigenvalues
    1.686407    1.815513    1.820195    1.896130    1.926330    1.936730


........................................................................
.............................. CYCLE    1 ..............................
........................................................................

 iter      E             dE          RMSdq      gap      omega  full diag
   1    -44.6027422 -0.446027E+02  0.558E-05    2.21       0.0  T
   2    -44.6027422 -0.129532E-10  0.362E-05    2.21     466.5  T
   3    -44.6027422 -0.821387E-11  0.248E-05    2.21     682.6  T
     SCC iter.                  ...        0 min,  0.003 sec
     gradient                   ...        0 min,  0.003 sec
 * total energy  :   -43.8653701 Eh     change       -0.1106777E-08 Eh
   gradient norm :     0.0670621 Eh/α   predicted     0.0000000E+00 (-100.00%)
   displ. norm   :     0.3515538 α      lambda       -0.1146037E-01
   maximum displ.:     0.1448173 α      in ANC's #16, #19, #17, ...

........................................................................
.............................. CYCLE    2 ..............................
........................................................................

 iter      E             dE          RMSdq      gap      omega  full diag
   1    -44.6413400 -0.446413E+02  0.223E-01    2.26       0.0  T
   2    -44.6413508 -0.108589E-04  0.134E-01    2.26       1.0  T
   3    -44.6412531  0.977232E-04  0.549E-02    2.26       1.0  T
   4    -44.6413627 -0.109592E-03  0.746E-03    2.26       2.3  T
   5    -44.6413639 -0.121562E-05  0.279E-03    2.26       6.1  T
   6    -44.6413639  0.123634E-11  0.115E-03    2.26      14.7  T
   7    -44.6413640 -0.294765E-07  0.518E-04    2.26      32.7  T
   8    -44.6413640 -0.550602E-08  0.161E-04    2.26     104.8  T
     SCC iter.                  ...        0 min,  0.007 sec
     gradient                   ...        0 min,  0.003 sec
 * total energy  :   -43.8732577 Eh     change       -0.7887611E-02 Eh
   gradient norm :     0.0307705 Eh/α   predicted    -0.6439494E-02 ( -18.36%)
   displ. norm   :     0.3159970 α      lambda       -0.3699203E-02
   maximum displ.:     0.1452547 α      in ANC's #16, #14, #9, ...

........................................................................
.............................. CYCLE    3 ..............................
........................................................................

 iter      E             dE          RMSdq      gap      omega  full diag
   1    -44.6611110 -0.446611E+02  0.155E-01    2.27       0.0  T
   2    -44.6611168 -0.586405E-05  0.944E-02    2.27       1.0  T
   3    -44.6610357  0.810907E-04  0.490E-02    2.27       1.0  T
   4    -44.6611268 -0.910371E-04  0.639E-03    2.27       2.6  T
   5    -44.6611279 -0.108099E-05  0.195E-03    2.27       8.7  T
   6    -44.6611279 -0.288160E-08  0.914E-04    2.27      18.5  T
   7    -44.6611279 -0.186465E-07  0.299E-04    2.27      56.5  T
     SCC iter.                  ...        0 min,  0.006 sec
     gradient                   ...        0 min,  0.003 sec
 * total energy  :   -43.8754269 Eh     change       -0.2169122E-02 Eh
   gradient norm :     0.0087028 Eh/α   predicted    -0.2035690E-02 (  -6.15%)
   displ. norm   :     0.1825754 α      lambda       -0.5551856E-03
   maximum displ.:     0.0831914 α      in ANC's #9, #3, #14, ...

........................................................................
.............................. CYCLE    4 ..............................
........................................................................

 iter      E             dE          RMSdq      gap      omega  full diag
   1    -44.6610729 -0.446611E+02  0.717E-02    2.26       0.0  T
   2    -44.6610733 -0.397391E-06  0.448E-02    2.26       1.0  T
   3    -44.6610446  0.287446E-04  0.280E-02    2.26       1.0  T
   4    -44.6610774 -0.328287E-04  0.188E-03    2.26       9.0  T
   5    -44.6610775 -0.706831E-07  0.804E-04    2.26      21.0  T
   6    -44.6610775 -0.365613E-08  0.345E-04    2.26      49.0  T
     SCC iter.                  ...        0 min,  0.005 sec
     gradient                   ...        0 min,  0.003 sec
 * total energy  :   -43.8758026 Eh     change       -0.3756915E-03 Eh
   gradient norm :     0.0054116 Eh/α   predicted    -0.2868548E-03 ( -23.65%)
   displ. norm   :     0.1791362 α      lambda       -0.2597008E-03
   maximum displ.:     0.0982132 α      in ANC's #3, #4, #9, ...

........................................................................
.............................. CYCLE    5 ..............................
........................................................................

 iter      E             dE          RMSdq      gap      omega  full diag
   1    -44.6602136 -0.446602E+02  0.529E-02    2.25       0.0  T
   2    -44.6602138 -0.253973E-06  0.319E-02    2.25       1.0  T
   3    -44.6602028  0.110073E-04  0.173E-02    2.25       1.0  T
   4    -44.6602150 -0.121990E-04  0.112E-03    2.25      15.1  T
   5    -44.6602150 -0.146704E-07  0.565E-04    2.25      29.9  T
   6    -44.6602150 -0.188964E-08  0.237E-04    2.25      71.4  T
     SCC iter.                  ...        0 min,  0.005 sec
     gradient                   ...        0 min,  0.003 sec
 * total energy  :   -43.8759758 Eh     change       -0.1732901E-03 Eh
   gradient norm :     0.0027754 Eh/α   predicted    -0.1340222E-03 ( -22.66%)
   displ. norm   :     0.1540109 α      lambda       -0.1217621E-03
   maximum displ.:     0.0897832 α      in ANC's #3, #4, #2, ...

........................................................................
.............................. CYCLE    6 ..............................
........................................................................

 iter      E             dE          RMSdq      gap      omega  full diag
   1    -44.6597002 -0.446597E+02  0.358E-02    2.25       0.0  T
   2    -44.6597003 -0.157194E-06  0.211E-02    2.25       1.0  T
   3    -44.6596995  0.866416E-06  0.481E-03    2.25       3.5  T
   4    -44.6597004 -0.969124E-06  0.800E-04    2.25      21.1  T
   5    -44.6597004 -0.966790E-08  0.386E-04    2.25      43.8  T
     SCC iter.                  ...        0 min,  0.004 sec
     gradient                   ...        0 min,  0.003 sec
 * total energy  :   -43.8760698 Eh     change       -0.9396952E-04 Eh
   gradient norm :     0.0028933 Eh/α   predicted    -0.6235967E-04 ( -33.64%)
   displ. norm   :     0.1810357 α      lambda       -0.1185717E-03
   maximum displ.:     0.1037927 α      in ANC's #3, #4, #2, ...

........................................................................
.............................. CYCLE    7 ..............................
........................................................................

 iter      E             dE          RMSdq      gap      omega  full diag
   1    -44.6596201 -0.446596E+02  0.430E-02    2.25       0.0  T
   2    -44.6596202 -0.164364E-06  0.253E-02    2.25       1.0  T
   3    -44.6596202  0.821252E-07  0.208E-03    2.25       8.1  T
   4    -44.6596203 -0.142170E-06  0.712E-04    2.25      23.7  T
   5    -44.6596203 -0.295620E-08  0.376E-04    2.25      45.0  T
     SCC iter.                  ...        0 min,  0.004 sec
     gradient                   ...        0 min,  0.003 sec
 * total energy  :   -43.8761630 Eh     change       -0.9318978E-04 Eh
   gradient norm :     0.0032514 Eh/α   predicted    -0.6122997E-04 ( -34.30%)
   displ. norm   :     0.2172386 α      lambda       -0.1112288E-03
   maximum displ.:     0.1218570 α      in ANC's #3, #4, #2, ...

........................................................................
.............................. CYCLE    8 ..............................
........................................................................

 iter      E             dE          RMSdq      gap      omega  full diag
   1    -44.6597195 -0.446597E+02  0.547E-02    2.25       0.0  T
   2    -44.6597198 -0.236832E-06  0.322E-02    2.25       1.0  T
   3    -44.6597196  0.179769E-06  0.274E-03    2.25       6.2  T
   4    -44.6597198 -0.271296E-06  0.768E-04    2.25      22.0  T
   5    -44.6597199 -0.432593E-08  0.425E-04    2.25      39.8  T
     SCC iter.                  ...        0 min,  0.004 sec
     gradient                   ...        0 min,  0.003 sec
 * total energy  :   -43.8762432 Eh     change       -0.8021464E-04 Eh
   gradient norm :     0.0026244 Eh/α   predicted    -0.5823939E-04 ( -27.40%)
   displ. norm   :     0.1778466 α      lambda       -0.6159598E-04
   maximum displ.:     0.0973965 α      in ANC's #3, #4, #2, ...

........................................................................
.............................. CYCLE    9 ..............................
........................................................................

 iter      E             dE          RMSdq      gap      omega  full diag
   1    -44.6601288 -0.446601E+02  0.459E-02    2.26       0.0  T
   2    -44.6601290 -0.169750E-06  0.271E-02    2.26       1.0  T
   3    -44.6601287  0.291771E-06  0.294E-03    2.26       5.7  T
   4    -44.6601291 -0.365705E-06  0.682E-04    2.26      24.8  T
   5    -44.6601291 -0.707428E-08  0.411E-04    2.26      41.1  T
     SCC iter.                  ...        0 min,  0.004 sec
     gradient                   ...        0 min,  0.003 sec
 * total energy  :   -43.8762855 Eh     change       -0.4224669E-04 Eh
   gradient norm :     0.0019415 Eh/α   predicted    -0.3177255E-04 ( -24.79%)
   displ. norm   :     0.1653934 α      lambda       -0.3058497E-04
   maximum displ.:     0.0878229 α      in ANC's #2, #3, #4, ...

........................................................................
.............................. CYCLE   10 ..............................
........................................................................

 iter      E             dE          RMSdq      gap      omega  full diag
   1    -44.6609127 -0.446609E+02  0.435E-02    2.26       0.0  T
   2    -44.6609128 -0.148592E-06  0.257E-02    2.26       1.0  T
   3    -44.6609124  0.426884E-06  0.341E-03    2.26       5.0  T
   4    -44.6609129 -0.497247E-06  0.747E-04    2.26      22.6  T
   5    -44.6609129 -0.115894E-07  0.366E-04    2.26      46.2  T
     SCC iter.                  ...        0 min,  0.004 sec
     gradient                   ...        0 min,  0.003 sec
 * total energy  :   -43.8763129 Eh     change       -0.2742251E-04 Eh
   gradient norm :     0.0014633 Eh/α   predicted    -0.1547923E-04 ( -43.55%)
   displ. norm   :     0.1624728 α      lambda        0.1324288E-04
   maximum displ.:     0.0860763 α      in ANC's #2, #3, #4, ...

........................................................................
.............................. CYCLE   11 ..............................
........................................................................

 iter      E             dE          RMSdq      gap      omega  full diag
   1    -44.6612222 -0.446612E+02  0.428E-02    2.26       0.0  T
   2    -44.6612223 -0.135838E-06  0.253E-02    2.27       1.0  T
   3    -44.6612219  0.473628E-06  0.354E-03    2.27       4.8  T
   4    -44.6612224 -0.548138E-06  0.715E-04    2.27      23.6  T
   5    -44.6612224 -0.971023E-08  0.363E-04    2.27      46.6  T
     SCC iter.                  ...        0 min,  0.004 sec
     gradient                   ...        0 min,  0.003 sec
 * total energy  :   -43.8763053 Eh     change        0.7621694E-05 Eh
   gradient norm :     0.0031179 Eh/α   predicted     0.6695059E-05 ( -12.16%)
   displ. norm   :     0.0704670 α      lambda       -0.2597427E-04
   maximum displ.:     0.0406996 α      in ANC's #4, #3, #2, ...

........................................................................
.............................. CYCLE   12 ..............................
........................................................................

 iter      E             dE          RMSdq      gap      omega  full diag
   1    -44.6613258 -0.446613E+02  0.207E-02    2.27       0.0  T
   2    -44.6613258 -0.430230E-07  0.122E-02    2.26       1.4  T
   3    -44.6613257  0.117265E-06  0.172E-03    2.26       9.8  T
   4    -44.6613258 -0.134741E-06  0.388E-04    2.26      43.6  T
   5    -44.6613258 -0.392667E-08  0.172E-04    2.26      98.1  T
     SCC iter.                  ...        0 min,  0.004 sec
     gradient                   ...        0 min,  0.003 sec
 * total energy  :   -43.8763253 Eh     change       -0.1998989E-04 Eh
   gradient norm :     0.0017380 Eh/α   predicted    -0.1305550E-04 ( -34.69%)
   displ. norm   :     0.1069529 α      lambda       -0.2666991E-04
   maximum displ.:     0.0677860 α      in ANC's #4, #3, #10, ...

........................................................................
.............................. CYCLE   13 ..............................
........................................................................

 iter      E             dE          RMSdq      gap      omega  full diag
   1    -44.6604384 -0.446604E+02  0.341E-02    2.26       0.0  T
   2    -44.6604385 -0.144253E-06  0.201E-02    2.26       1.0  T
   3    -44.6604382  0.383666E-06  0.317E-03    2.26       5.3  T
   4    -44.6604386 -0.439509E-06  0.684E-04    2.26      24.7  T
   5    -44.6604386 -0.128696E-07  0.302E-04    2.26      55.9  T
     SCC iter.                  ...        0 min,  0.004 sec
     gradient                   ...        0 min,  0.003 sec
 * total energy  :   -43.8763449 Eh     change       -0.1968445E-04 Eh
   gradient norm :     0.0013326 Eh/α   predicted    -0.1340317E-04 ( -31.91%)
   displ. norm   :     0.0613085 α      lambda       -0.8796124E-05
   maximum displ.:     0.0397500 α      in ANC's #2, #5, #1, ...

........................................................................
.............................. CYCLE   14 ..............................
........................................................................

 iter      E             dE          RMSdq      gap      omega  full diag
   1    -44.6610029 -0.446610E+02  0.124E-02    2.26       0.0  T
   2    -44.6610030 -0.250666E-07  0.737E-03    2.26       2.3  T
   3    -44.6610029  0.215967E-07  0.873E-04    2.26      19.4  T
   4    -44.6610030 -0.257187E-07  0.316E-04    2.26      53.5  T
     SCC iter.                  ...        0 min,  0.004 sec
     gradient                   ...        0 min,  0.003 sec
 * total energy  :   -43.8763559 Eh     change       -0.1093884E-04 Eh
   gradient norm :     0.0008460 Eh/α   predicted    -0.4409127E-05 ( -59.69%)
   displ. norm   :     0.1701190 α      lambda       -0.1920262E-04
   maximum displ.:     0.1075447 α      in ANC's #2, #5, #1, ...

........................................................................
.............................. CYCLE   15 ..............................
........................................................................

 iter      E             dE          RMSdq      gap      omega  full diag
   1    -44.6605949 -0.446606E+02  0.321E-02    2.26       0.0  T
   2    -44.6605950 -0.937019E-07  0.191E-02    2.26       1.0  T
   3    -44.6605949  0.145739E-06  0.228E-03    2.26       7.4  T
   4    -44.6605951 -0.179669E-06  0.625E-04    2.26      27.0  T
   5    -44.6605951 -0.508307E-08  0.350E-04    2.26      48.2  T
     SCC iter.                  ...        0 min,  0.004 sec
     gradient                   ...        0 min,  0.003 sec
 * total energy  :   -43.8763767 Eh     change       -0.2084296E-04 Eh
   gradient norm :     0.0011647 Eh/α   predicted    -0.9725020E-05 ( -53.34%)
   displ. norm   :     0.1803003 α      lambda       -0.1688358E-04
   maximum displ.:     0.1173501 α      in ANC's #2, #5, #1, ...

........................................................................
.............................. CYCLE   16 ..............................
........................................................................

 iter      E             dE          RMSdq      gap      omega  full diag
   1    -44.6602429 -0.446602E+02  0.354E-02    2.26       0.0  T
   2    -44.6602430 -0.819374E-07  0.209E-02    2.26       1.0  T
   3    -44.6602428  0.148645E-06  0.234E-03    2.26       7.2  T
   4    -44.6602430 -0.189767E-06  0.573E-04    2.26      29.5  T
   5    -44.6602430 -0.171001E-08  0.355E-04    2.26      47.6  T
     SCC iter.                  ...        0 min,  0.004 sec
     gradient                   ...        0 min,  0.003 sec
 * total energy  :   -43.8763970 Eh     change       -0.2027022E-04 Eh
   gradient norm :     0.0012545 Eh/α   predicted    -0.8567270E-05 ( -57.73%)
   displ. norm   :     0.2720568 α      lambda       -0.2503438E-04
   maximum displ.:     0.1759065 α      in ANC's #2, #5, #1, ...

........................................................................
.............................. CYCLE   17 ..............................
........................................................................

 iter      E             dE          RMSdq      gap      omega  full diag
   1    -44.6601318 -0.446601E+02  0.568E-02    2.26       0.0  T
   2    -44.6601319 -0.175372E-06  0.335E-02    2.26       1.0  T
   3    -44.6601318  0.162818E-06  0.273E-03    2.26       6.2  T
   4    -44.6601320 -0.255027E-06  0.783E-04    2.26      21.6  T
   5    -44.6601320  0.237061E-08  0.513E-04    2.26      33.0  T
     SCC iter.                  ...        0 min,  0.004 sec
     gradient                   ...        0 min,  0.003 sec
 * total energy  :   -43.8764272 Eh     change       -0.3024851E-04 Eh
   gradient norm :     0.0016085 Eh/α   predicted    -0.1292959E-04 ( -57.26%)
   displ. norm   :     0.4476796 α      lambda       -0.4501253E-04
   maximum displ.:     0.2889362 α      in ANC's #2, #5, #1, ...

........................................................................
.............................. CYCLE   18 ..............................
........................................................................

 iter      E             dE          RMSdq      gap      omega  full diag
   1    -44.6593802 -0.446594E+02  0.103E-01    2.26       0.0  T
   2    -44.6593808 -0.586877E-06  0.605E-02    2.26       1.0  T
   3    -44.6593804  0.443883E-06  0.471E-03    2.27       3.6  T
   4    -44.6593811 -0.725853E-06  0.139E-03    2.27      12.2  T
   5    -44.6593811 -0.199322E-08  0.857E-04    2.26      19.7  T
   6    -44.6593811 -0.155440E-07  0.222E-04    2.26      76.2  T
     SCC iter.                  ...        0 min,  0.005 sec
     gradient                   ...        0 min,  0.003 sec
 * total energy  :   -43.8764717 Eh     change       -0.4446057E-04 Eh
   gradient norm :     0.0022311 Eh/α   predicted    -0.2451523E-04 ( -44.86%)
   displ. norm   :     0.1716801 α      lambda       -0.2947389E-04
   maximum displ.:     0.1087848 α      in ANC's #2, #5, #1, ...

........................................................................
.............................. CYCLE   19 ..............................
........................................................................

 iter      E             dE          RMSdq      gap      omega  full diag
   1    -44.6603180 -0.446603E+02  0.436E-02    2.27       0.0  T
   2    -44.6603182 -0.165380E-06  0.256E-02    2.27       1.0  T
   3    -44.6603181  0.518062E-07  0.180E-03    2.27       9.4  T
   4    -44.6603182 -0.996403E-07  0.630E-04    2.27      26.8  T
   5    -44.6603182 -0.652287E-08  0.343E-04    2.27      49.3  T
     SCC iter.                  ...        0 min,  0.004 sec
     gradient                   ...        0 min,  0.003 sec
 * total energy  :   -43.8764936 Eh     change       -0.2192823E-04 Eh
   gradient norm :     0.0015288 Eh/α   predicted    -0.1517341E-04 ( -30.80%)
   displ. norm   :     0.4852895 α      lambda       -0.2893802E-04
   maximum displ.:     0.3157928 α      in ANC's #2, #5, #1, ...

........................................................................
.............................. CYCLE   20 ..............................
........................................................................

 iter      E             dE          RMSdq      gap      omega  full diag
   1    -44.6585897 -0.446586E+02  0.119E-01    2.27       0.0  T
   2    -44.6585908 -0.112275E-05  0.699E-02    2.27       1.0  T
   3    -44.6585902  0.611849E-06  0.539E-03    2.27       3.1  T
   4    -44.6585911 -0.969401E-06  0.186E-03    2.27       9.1  T
   5    -44.6585912 -0.555902E-07  0.976E-04    2.27      17.3  T
   6    -44.6585912 -0.446401E-08  0.456E-04    2.27      37.1  T
     SCC iter.                  ...        0 min,  0.005 sec
     gradient                   ...        0 min,  0.003 sec
 * total energy  :   -43.8764906 Eh     change        0.3037413E-05 Eh
   gradient norm :     0.0037963 Eh/α   predicted    -0.1598601E-04 (-626.30%)
   displ. norm   :     0.0752427 α      lambda       -0.5761291E-04
   maximum displ.:     0.0407311 α      in ANC's #7, #5, #2, ...
 * RMSD in coord.:     0.4457354 α      energy gain  -0.1112046E-01 Eh

generating ANC from exact Hessian ...
Using Lindh-Hessian (1995)
 Shifting diagonal of input Hessian by    9.3316183454272804E-003
 Lowest  eigenvalues of input Hessian
    0.000000    0.000000    0.000000    0.000000    0.000000    0.000000
    0.010000    0.010306    0.010497    0.011481    0.011950    0.013136
    0.014424    0.015094    0.016540    0.018293    0.019135    0.021570
 Highest eigenvalues
    1.740252    1.898217    1.922060    1.960235    2.002851    2.028582


........................................................................
.............................. CYCLE   21 ..............................
........................................................................

 iter      E             dE          RMSdq      gap      omega  full diag
   1    -44.6619997 -0.446620E+02  0.194E-02    2.27       0.0  T
   2    -44.6620003 -0.632581E-06  0.110E-02    2.27       1.5  T
   3    -44.6620003  0.180359E-07  0.264E-03    2.27       6.4  T
   4    -44.6620003 -0.292914E-07  0.110E-03    2.27      15.3  T
   5    -44.6620004 -0.385153E-07  0.463E-04    2.27      36.5  T
   6    -44.6620004 -0.146206E-08  0.241E-04    2.27      70.0  T
     SCC iter.                  ...        0 min,  0.005 sec
     gradient                   ...        0 min,  0.003 sec
 * total energy  :   -43.8765110 Eh     change       -0.2041078E-04 Eh
   gradient norm :     0.0015176 Eh/α   predicted     0.0000000E+00 (-100.00%)
   displ. norm   :     0.0209714 α      lambda       -0.7580743E-05
   maximum displ.:     0.0107638 α      in ANC's #2, #6, #7, ...

........................................................................
.............................. CYCLE   22 ..............................
........................................................................

 iter      E             dE          RMSdq      gap      omega  full diag
   1    -44.6608728 -0.446609E+02  0.869E-03    2.27       0.0  T
   2    -44.6608728 -0.545757E-07  0.512E-03    2.27       3.3  T
   3    -44.6608727  0.905774E-07  0.181E-03    2.27       9.3  T
   4    -44.6608728 -0.102678E-06  0.455E-04    2.27      37.2  T
   5    -44.6608729 -0.522762E-08  0.157E-04    2.27     107.8  T
     SCC iter.                  ...        0 min,  0.004 sec
     gradient                   ...        0 min,  0.003 sec
 * total energy  :   -43.8765168 Eh     change       -0.5805563E-05 Eh
   gradient norm :     0.0004159 Eh/α   predicted    -0.3822023E-05 ( -34.17%)
   displ. norm   :     0.0205555 α      lambda       -0.2073102E-05
   maximum displ.:     0.0121751 α      in ANC's #2, #6, #7, ...

........................................................................
.............................. CYCLE   23 ..............................
........................................................................

 iter      E             dE          RMSdq      gap      omega  full diag
   1    -44.6608196 -0.446608E+02  0.496E-03    2.27       0.0  T
   2    -44.6608196 -0.362333E-08  0.294E-03    2.27       5.8  T
   3    -44.6608196  0.592362E-07  0.132E-03    2.27      12.8  T
   4    -44.6608196 -0.653865E-07  0.126E-04    2.27     134.6  T
   5    -44.6608196 -0.423029E-09  0.500E-05    2.27     338.1  T
     SCC iter.                  ...        0 min,  0.004 sec
     gradient                   ...        0 min,  0.003 sec
 * total energy  :   -43.8765192 Eh     change       -0.2430028E-05 Eh
   gradient norm :     0.0004046 Eh/α   predicted    -0.1039558E-05 ( -57.22%)
   displ. norm   :     0.0429736 α      lambda       -0.2941298E-05
   maximum displ.:     0.0247622 α      in ANC's #2, #5, #7, ...

   *** GEOMETRY OPTIMIZATION CONVERGED AFTER 23 ITERATIONS ***

------------------------------------------------------------------------
 total energy gain   :        -0.0111491 Eh       -6.9962 kcal/mol
 total RMSD          :         0.4454348 a0        0.2357 Å
 total power (kW/mol):        -1.2726950 (step) -124.2948 (real)
------------------------------------------------------------------------

 ANCopt (total)                0 d,  0 h,  0 min,  0.236 sec
 optimizer setup                ...        0 min,  0.000 sec (  0.026%)
 model hessian                  ...        0 min,  0.021 sec (  9.064%)
 ANC generation                 ...        0 min,  0.001 sec (  0.615%)
 coordinate transformation      ...        0 min,  0.000 sec (  0.062%)
 single point calculation       ...        0 min,  0.209 sec ( 88.815%)
 optimization log               ...        0 min,  0.001 sec (  0.635%)
 hessian update                 ...        0 min,  0.000 sec (  0.084%)
 rational function              ...        0 min,  0.001 sec (  0.445%)

================
 final structure:
================
35
 xtb: 6.7.1 (edcfbbe)
C           -2.42998920558020        1.75515233205111        1.08779035298121
C           -2.46488521136380        0.23336079051496        1.04187275526551
C           -2.06111352775002       -0.39579338489419       -0.33441835140164
C           -2.75941692138376       -1.71460288305674       -0.42507066819243
C           -2.11530322288169       -2.88846131857625       -0.22465281166519
C           -0.72097322189007       -2.92452735983794       -0.06032741154096
C            0.01936760115571       -1.75335755795815       -0.24930349766782
C           -0.57557862832813       -0.54418090738159       -0.46336038837386
C            0.23941199154655        0.64307874279267       -0.91432196957488
C            0.38935470296860        0.56972366885885       -2.44014092889507
C            1.55343418686332        0.70789600277545       -0.16784036552604
C            2.79156462060369        0.55399103701583       -0.77601603000288
C            3.95859630283220        0.61748051445465       -0.03169818478047
C            3.90886954012057        0.83436810660179        1.33278447033447
C            2.67909989309628        0.98500371039306        1.95213666239586
C            1.51716342430007        0.92087043860154        1.20779665510984
H           -3.02982040621783        2.17753237149376        0.28327634470636
H           -1.41773134224413        2.14207000135232        1.00449208052319
H           -2.84100631279812        2.10160908864631        2.03466738003744
H           -1.81396988175443       -0.18464149220090        1.81179818425382
H           -3.48421116224482       -0.09233324305981        1.26356902411621
H           -2.44145279345451        0.28200877689122       -1.11132481690486
H           -3.82861897357151       -1.68575419417317       -0.57657013158517
H           -2.66894880407947       -3.81704816889613       -0.22267926560036
H           -0.21834647760747       -3.86034715850577        0.12403470698886
H            1.09905208396375       -1.81964463485513       -0.27243411686112
H           -0.31300395868848        1.56180219387476       -0.69074167500196
H            0.88055974515291       -0.35455151943455       -2.73461429734127
H            0.95995599149733        1.41796798596732       -2.81226197721590
H           -0.59502267168351        0.58774238670545       -2.90353323510157
H            2.86216354178878        0.38027584306039       -1.83825223556142
H            4.91237107446947        0.49498967934170       -0.52493060536604
H            4.82002449641946        0.88423871602212        1.91081639371190
H            2.62658457657880        1.15280182365879        3.01832205857536
H            0.56201895016430        1.03127961175653        1.70083589516211

 Bond Distances (Angstroems)
 ---------------------------
C1-C2=1.5229         C1-H17=1.0888        C1-H18=1.0869        C1-H19=1.0888        C2-C1=1.5229         C2-C3=1.5662         
C2-H20=1.0914        C2-H21=1.0928        C3-C2=1.5662         C3-C4=1.4950         C3-C8=1.4985         C3-H22=1.0989        
C4-C3=1.4950         C4-C5=1.3539         C4-H23=1.0803        C5-C4=1.3539         C5-C6=1.4044         C5-H24=1.0811        
C6-C5=1.4044         C6-C7=1.3984         C6-H25=1.0781        C7-C6=1.3984         C7-C8=1.3645         C7-H26=1.0820        
C8-C3=1.4985         C8-C7=1.3645         C8-C9=1.5090         C9-C8=1.5090         C9-C10=1.5349        C9-C11=1.5126        
C9-H27=1.0951        C10-C9=1.5349        C10-H28=1.0873       C10-H29=1.0879       C10-H30=1.0881       C11-C9=1.5126        
C11-C12=1.3880       C11-C16=1.3925       C12-C11=1.3880       C12-C13=1.3856       C12-H31=1.0787       C13-C12=1.3856       
C13-C14=1.3825       C13-H32=1.0807       C14-C13=1.3825       C14-C15=1.3851       C14-H33=1.0802       C15-C14=1.3851       
C15-C16=1.3814       C15-H34=1.0806       C16-C11=1.3925       C16-C15=1.3814       C16-H35=1.0805       H17-C1=1.0888        
H18-C1=1.0869        H19-C1=1.0888        H20-C2=1.0914        H21-C2=1.0928        H22-C3=1.0989        H23-C4=1.0803        
H24-C5=1.0811        H25-C6=1.0781        H26-C7=1.0820        H27-C9=1.0951        H28-C10=1.0873       H29-C10=1.0879       
H30-C10=1.0881       H31-C12=1.0787       H32-C13=1.0807       H33-C14=1.0802       H34-C15=1.0806       H35-C16=1.0805       
 C  H  Rav=1.0857 sigma=0.0059  Rmin=1.0781  Rmax=1.0989    19
 C  C  Rav=1.4397 sigma=0.0695  Rmin=1.3539  Rmax=1.5662    17

 selected bond angles (degree)
 --------------------
H17-C1-C2=110.66               H18-C1-C2=112.01               H18-C1-H17=108.56              H19-C1-C2=109.61               
H19-C1-H17=108.13              H19-C1-H18=107.75              C3-C2-C1=114.96                H20-C2-C1=110.35               
H20-C2-C3=108.20               H21-C2-C1=108.24               H21-C2-C3=107.40               H21-C2-H20=107.40              
C4-C3-C2=106.69                C8-C3-C2=111.78                C8-C3-C4=111.75                H22-C3-C2=106.51               
H22-C3-C4=109.85               H22-C3-C8=110.08               C5-C4-C3=122.25                H23-C4-C3=116.57               
H23-C4-C5=120.98               C6-C5-C4=120.79                H24-C5-C4=120.09               H24-C5-C6=119.09               
C7-C6-C5=119.23                H25-C6-C5=120.34               H25-C6-C7=120.22               C8-C7-C6=122.18                
H26-C7-C6=118.68               H26-C7-C8=119.08               C7-C8-C3=120.43                C9-C8-C3=118.90                
C9-C8-C7=120.57                C10-C9-C8=108.19               C11-C9-C8=110.82               C11-C9-C10=114.06              
H27-C9-C8=109.06               H27-C9-C10=107.00              H27-C9-C11=107.55              H28-C10-C9=110.73              
H29-C10-C9=110.73              H29-C10-H28=109.46             H30-C10-C9=109.52              H30-C10-H28=107.90             
H30-C10-H29=108.41             

 selected dihedral angles (degree)
 ---------------------------------
C3-C2-C1-H17= 53.86           C3-C2-C1-H18=292.57           C3-C2-C1-H19=173.02           H20-C2-C1-H17=176.55          
H20-C2-C1-H18= 55.26          H20-C2-C1-H19=295.71          H21-C2-C1-H17=293.81          H21-C2-C1-H18=172.52          
H21-C2-C1-H19= 52.98          C4-C3-C2-C1=207.13            C4-C3-C2-H20= 83.30           C4-C3-C2-H21=327.65           
C8-C3-C2-C1= 84.70            C8-C3-C2-H20=320.87           C8-C3-C2-H21=205.22           H22-C3-C2-C1=324.43           
H22-C3-C2-H20=200.60          H22-C3-C2-H21= 84.95          C5-C4-C3-C2=256.61            C5-C4-C3-C8= 19.06            
C5-C4-C3-H22=141.54           H23-C4-C3-C2= 71.55           H23-C4-C3-C8=194.00           H23-C4-C3-H22=316.48          
C6-C5-C4-C3=353.17            C6-C5-C4-H23=178.45           H24-C5-C4-C3=175.24           H24-C5-C4-H23=  0.52          
C7-C6-C5-C4=353.11            C7-C6-C5-H24=171.06           H25-C6-C5-C4=178.43           H25-C6-C5-H24=356.38          
C8-C7-C6-C5=  6.41            C8-C7-C6-H25=181.10           H26-C7-C6-C5=189.35           H26-C7-C6-H25=  4.04          
C7-C8-C3-C2=100.26            C7-C8-C3-C4=340.77            C7-C8-C3-H22=218.42           C9-C8-C3-C2=276.60            
C9-C8-C3-C4=157.11            C9-C8-C3-H22= 34.76           C3-C8-C7-C6=  7.67            C3-C8-C7-H26=184.71           
C9-C8-C7-C6=191.39            C9-C8-C7-H26=  8.43           C10-C9-C8-C3=267.50           C10-C9-C8-C7= 83.84           
C11-C9-C8-C3=141.76           C11-C9-C8-C7=318.09           H27-C9-C8-C3= 23.55           H27-C9-C8-C7=199.89           
H28-C10-C9-C8=300.76          H28-C10-C9-C11= 64.57         H28-C10-C9-H27=183.37         H29-C10-C9-C8=179.15          
H29-C10-C9-C11=302.96         H29-C10-C9-H27= 61.76         H30-C10-C9-C8= 59.64          H30-C10-C9-C11=183.45         
H30-C10-C9-H27=302.25         
           -------------------------------------------------
          |                Final Singlepoint                |
           -------------------------------------------------

          ...................................................
          :                      SETUP                      :
          :.................................................:
          :  # basis functions                  83          :
          :  # atomic orbitals                  83          :
          :  # shells                           51          :
          :  # electrons                        83          :
          :  max. iterations                   250          :
          :  Hamiltonian                  GFN2-xTB          :
          :  restarted?                      false          :
          :  GBSA solvation                  false          :
          :  PC potential                    false          :
          :  electronic temp.          300.0000000     K    :
          :  accuracy                    1.0000000          :
          :  -> integral cutoff          0.2500000E+02      :
          :  -> integral neglect         0.1000000E-07      :
          :  -> SCF convergence          0.1000000E-05 Eh   :
          :  -> wf. convergence          0.1000000E-03 e    :
          :  Broyden damping             0.4000000          :
          :  net charge                          0          :
          :  unpaired electrons                  0          :
          ...................................................

 iter      E             dE          RMSdq      gap      omega  full diag
   1    -44.6608196 -0.446608E+02  0.238E-05    2.27       0.0  T
   2    -44.6608196 -0.349587E-11  0.159E-05    2.27    1061.4  T
   3    -44.6608196 -0.440536E-11  0.914E-06    2.27    1849.1  T

   *** convergence criteria satisfied after 3 iterations ***

         #    Occupation            Energy/Eh            Energy/eV
      -------------------------------------------------------------
         1        2.0000           -0.6411094             -17.4455
       ...           ...                  ...                  ...
        36        2.0000           -0.4161680             -11.3245
        37        2.0000           -0.4148301             -11.2881
        38        2.0000           -0.4030702             -10.9681
        39        2.0000           -0.3983601             -10.8399
        40        2.0000           -0.3939991             -10.7213
        41        2.0000           -0.3837894             -10.4434
        42        1.0000           -0.3006574              -8.1813 (HOMO)
        43                         -0.2173617              -5.9147 (LUMO)
        44                         -0.2157824              -5.8717
        45                         -0.2040528              -5.5526
        46                         -0.1237569              -3.3676
        47                         -0.0880013              -2.3946
       ...                                ...                  ...
        83                          0.6715640              18.2742
      -------------------------------------------------------------
                  HL-Gap            0.0832957 Eh            2.2666 eV
             Fermi-level           -0.3006165 Eh           -8.1802 eV

 SCC (total)                   0 d,  0 h,  0 min,  0.007 sec
 SCC setup                      ...        0 min,  0.000 sec (  0.713%)
 Dispersion                     ...        0 min,  0.000 sec (  1.476%)
 classical contributions        ...        0 min,  0.000 sec (  0.317%)
 integral evaluation            ...        0 min,  0.001 sec ( 13.751%)
 iterations                     ...        0 min,  0.003 sec ( 37.463%)
 molecular gradient             ...        0 min,  0.003 sec ( 42.785%)
 printout                       ...        0 min,  0.000 sec (  3.371%)

         :::::::::::::::::::::::::::::::::::::::::::::::::::::
         ::                     SUMMARY                     ::
         :::::::::::::::::::::::::::::::::::::::::::::::::::::
         :: total energy             -43.876519236993 Eh    ::
         :: gradient norm              0.000404458982 Eh/a0 ::
         :: HOMO-LUMO gap              2.266591401120 eV    ::
         ::.................................................::
         :: SCC energy               -44.660256880397 Eh    ::
         :: -> isotropic ES            0.004389421633 Eh    ::
         :: -> anisotropic ES          0.008828024412 Eh    ::
         :: -> anisotropic XC          0.028593586873 Eh    ::
         :: -> dispersion             -0.035950001342 Eh    ::
         :: repulsion energy           0.783737643404 Eh    ::
         :: add. restraining           0.000000000000 Eh    ::
         :: total charge              -0.000000000000 e     ::
         :::::::::::::::::::::::::::::::::::::::::::::::::::::

           -------------------------------------------------
          |                Property Printout                |
           -------------------------------------------------

    * Orbital Energies and Occupations

         #    Occupation            Energy/Eh            Energy/eV
      -------------------------------------------------------------
         1        2.0000           -0.6411094             -17.4455
       ...           ...                  ...                  ...
        30        2.0000           -0.4510918             -12.2748
        31        2.0000           -0.4496685             -12.2361
        32        2.0000           -0.4431439             -12.0586
        33        2.0000           -0.4366658             -11.8823
        34        2.0000           -0.4300879             -11.7033
        35        2.0000           -0.4208471             -11.4518
        36        2.0000           -0.4161680             -11.3245
        37        2.0000           -0.4148301             -11.2881
        38        2.0000           -0.4030702             -10.9681
        39        2.0000           -0.3983601             -10.8399
        40        2.0000           -0.3939991             -10.7213
        41        2.0000           -0.3837894             -10.4434
        42        1.0000           -0.3006574              -8.1813 (HOMO)
        43                         -0.2173617              -5.9147 (LUMO)
        44                         -0.2157824              -5.8717
        45                         -0.2040528              -5.5526
        46                         -0.1237569              -3.3676
        47                         -0.0880013              -2.3946
        48                          0.0639241               1.7395
        49                          0.0829654               2.2576
        50                          0.0970677               2.6413
        51                          0.1055819               2.8730
        52                          0.1098698               2.9897
        53                          0.1205678               3.2808
       ...                                ...                  ...
        83                          0.6715640              18.2742
      -------------------------------------------------------------
                  HL-Gap            0.0832957 Eh            2.2666 eV
             Fermi-level           -0.3006165 Eh           -8.1802 eV

     #   Z          covCN         q      C6AA      α(0)
     1   6 C        3.750    -0.099    22.452     6.758
     2   6 C        3.804    -0.048    21.431     6.591
     3   6 C        3.859    -0.016    20.822     6.490
     4   6 C        2.914    -0.046    29.141     8.852
     5   6 C        2.903    -0.034    28.844     8.806
     6   6 C        2.916    -0.044    29.094     8.845
     7   6 C        2.908    -0.038    28.949     8.822
     8   6 C        2.966     0.000    28.016     8.682
     9   6 C        3.861    -0.023    20.941     6.508
    10   6 C        3.757    -0.098    22.429     6.752
    11   6 C        2.971     0.012    27.734     8.638
    12   6 C        2.924    -0.039    28.973     8.827
    13   6 C        2.920    -0.032    28.788     8.799
    14   6 C        2.920    -0.034    28.843     8.807
    15   6 C        2.919    -0.031    28.772     8.796
    16   6 C        2.928    -0.038    28.942     8.823
    17   1 H        0.925     0.034     2.530     2.487
    18   1 H        0.925     0.037     2.495     2.470
    19   1 H        0.925     0.035     2.517     2.481
    20   1 H        0.924     0.034     2.529     2.487
    21   1 H        0.924     0.035     2.510     2.478
    22   1 H        0.923     0.041     2.429     2.438
    23   1 H        0.926     0.022     2.703     2.571
    24   1 H        0.926     0.024     2.666     2.553
    25   1 H        0.926     0.023     2.694     2.567
    26   1 H        0.925     0.025     2.654     2.547
    27   1 H        0.924     0.044     2.395     2.420
    28   1 H        0.925     0.039     2.463     2.454
    29   1 H        0.925     0.038     2.471     2.458
    30   1 H        0.925     0.034     2.534     2.489
    31   1 H        0.926     0.034     2.534     2.489
    32   1 H        0.926     0.026     2.638     2.540
    33   1 H        0.926     0.026     2.639     2.540
    34   1 H        0.926     0.027     2.633     2.538
    35   1 H        0.926     0.027     2.625     2.533

 Mol. C6AA /au·bohr⁶  :      12652.354086
 Mol. C8AA /au·bohr⁸  :     299407.814358
 Mol. α(0) /au        :        177.336708


Wiberg/Mayer (AO) data.
largest (>0.10) Wiberg bond orders for each atom

 ---------------------------------------------------------------------------
     #   Z sym  total        # sym  WBO       # sym  WBO       # sym  WBO
 ---------------------------------------------------------------------------
     1   6 C    3.996 --     2 C    1.021    17 H    0.987    19 H    0.983
                            18 H    0.980
     2   6 C    3.989 --     1 C    1.021    20 H    0.979    21 H    0.975
                             3 C    0.921
     3   6 C    3.995 --     4 C    1.031     8 C    1.026    22 H    0.942
                             2 C    0.921
     4   6 C    3.921 --     5 C    1.637     3 C    1.031    23 H    0.971
     5   6 C    3.992 --     4 C    1.637     6 C    1.302    24 H    0.968
     6   6 C    3.877 --     7 C    1.339     5 C    1.302    25 H    0.974
     7   6 C    3.992 --     8 C    1.568     6 C    1.339    26 H    0.964
     8   6 C    3.911 --     7 C    1.568     3 C    1.026     9 C    0.995
     9   6 C    3.995 --     8 C    0.995    11 C    0.992    10 C    0.983
                            27 H    0.947
    10   6 C    3.996 --    30 H    0.986    28 H    0.986     9 C    0.983
                            29 H    0.983
    11   6 C    3.987 --    12 C    1.420    16 C    1.401     9 C    0.992
                            14 C    0.110
    12   6 C    3.991 --    13 C    1.436    11 C    1.420    31 H    0.967
                            15 C    0.109
    13   6 C    3.992 --    14 C    1.447    12 C    1.436    32 H    0.971
                            16 C    0.112
    14   6 C    3.992 --    13 C    1.447    15 C    1.429    33 H    0.972
                            11 C    0.110
    15   6 C    3.992 --    16 C    1.456    14 C    1.429    34 H    0.971
                            12 C    0.109
    16   6 C    3.992 --    15 C    1.456    11 C    1.401    35 H    0.967
                            13 C    0.112
    17   1 H    0.999 --     1 C    0.987
    18   1 H    0.999 --     1 C    0.980
    19   1 H    0.997 --     1 C    0.983
    20   1 H    0.999 --     2 C    0.979
    21   1 H    0.999 --     2 C    0.975
    22   1 H    0.998 --     3 C    0.942
    23   1 H    0.999 --     4 C    0.971
    24   1 H    0.999 --     5 C    0.968
    25   1 H    0.999 --     6 C    0.974
    26   1 H    0.999 --     7 C    0.964
    27   1 H    0.998 --     9 C    0.947
    28   1 H    0.998 --    10 C    0.986
    29   1 H    0.997 --    10 C    0.983
    30   1 H    0.998 --    10 C    0.986
    31   1 H    0.999 --    12 C    0.967
    32   1 H    0.999 --    13 C    0.971
    33   1 H    0.999 --    14 C    0.972
    34   1 H    0.999 --    15 C    0.971
    35   1 H    0.999 --    16 C    0.967
 ---------------------------------------------------------------------------

Topologies differ in total number of bonds
Writing topology from bond orders to xtbtopo.mol

molecular dipole:
                 x           y           z       tot (Debye)
 q only:       -0.192       0.376      -0.113
   full:       -0.215       0.379      -0.099       1.136
molecular quadrupole (traceless):
                xx          xy          yy          xz          yz          zz
 q only:        0.615      -1.861      -1.786      -1.072      -0.303       1.171
  q+dip:        4.654      -3.017      -4.298      -0.682      -0.455      -0.356
   full:        2.222      -2.415      -2.830      -0.924      -0.360       0.608

           -------------------------------------------------
          |                Geometry Summary                 |
           -------------------------------------------------

      molecular mass/u    :      211.3226486
   center of mass at/Å    :        0.2046010      -0.1249591       0.0278660
  moments of inertia/u·Å² :        0.5779954E+03   0.1420035E+04   0.1547467E+04
rotational constants/cm⁻¹ :        0.2916569E-01   0.1187128E-01   0.1089369E-01

 * 31 selected distances

     #   Z          #   Z                                           value/Å
     1   6 C        2   6 C                                       1.5228841
     4   6 C        5   6 C                                       1.3538810
     5   6 C        6   6 C                                       1.4044430
     6   6 C        7   6 C                                       1.3983760
     7   6 C        8   6 C                                       1.3645109
     9   6 C       10   6 C                                       1.5349227 (max)
    11   6 C       12   6 C                                       1.3879956
    12   6 C       13   6 C                                       1.3856418
    13   6 C       14   6 C                                       1.3825072
    14   6 C       15   6 C                                       1.3851433
    11   6 C       16   6 C                                       1.3924982
    15   6 C       16   6 C                                       1.3813949
     1   6 C       17   1 H                                       1.0887816
     1   6 C       18   1 H                                       1.0868809
     1   6 C       19   1 H                                       1.0888267
     2   6 C       20   1 H                                       1.0914220
     2   6 C       21   1 H                                       1.0928181
     3   6 C       22   1 H                                       1.0989348
     4   6 C       23   1 H                                       1.0802674
     5   6 C       24   1 H                                       1.0811110
     6   6 C       25   1 H                                       1.0781382 (min)
     7   6 C       26   1 H                                       1.0819648
     9   6 C       27   1 H                                       1.0950820
    10   6 C       28   1 H                                       1.0873278
    10   6 C       29   1 H                                       1.0879240
    10   6 C       30   1 H                                       1.0881434
    12   6 C       31   1 H                                       1.0786599
    13   6 C       32   1 H                                       1.0807260
    14   6 C       33   1 H                                       1.0801905
    15   6 C       34   1 H                                       1.0805858
    16   6 C       35   1 H                                       1.0805457

 * 2 distinct bonds (by element types)

   Z      Z             #   av. dist./Å        max./Å        min./Å
   1 H    6 C          19     1.0857016     1.0989348     1.0781382
   6 C    6 C          12     1.4078499     1.5349227     1.3538810


optimized geometry written to: xtbopt.xyz


           -------------------------------------------------
          | TOTAL ENERGY              -43.876519236993 Eh   |
          | GRADIENT NORM               0.000404458982 Eh/α |
          | HOMO-LUMO GAP               2.266591401120 eV   |
           -------------------------------------------------

------------------------------------------------------------------------
 * finished run on 2025/09/15 at 14:21:08.696     
------------------------------------------------------------------------
 total:
 * wall-time:     0 d,  0 h,  0 min,  0.286 sec
 *  cpu-time:     0 d,  0 h,  0 min,  1.125 sec
 * ratio c/w:     3.935 speedup
 SCF:
 * wall-time:     0 d,  0 h,  0 min,  0.023 sec
 *  cpu-time:     0 d,  0 h,  0 min,  0.089 sec
 * ratio c/w:     3.828 speedup
 ANC optimizer:
 * wall-time:     0 d,  0 h,  0 min,  0.243 sec
 *  cpu-time:     0 d,  0 h,  0 min,  0.973 sec
 * ratio c/w:     4.000 speedup

