35
 energy: -43.865370127717 gnorm: 0.067062090266 xtb: 6.7.1 (edcfbbe)
C           -2.44280000000000        1.70460000000000        1.04840000000000
C           -2.66290000000000        0.20440000000000        0.93010000000000
C           -2.10250000000000       -0.45010000000000       -0.35550000000000
C           -2.81390000000000       -1.79660000000000       -0.50680000000000
C           -2.20580000000000       -2.97260000000000       -0.29290000000000
C           -0.81520000000000       -2.95810000000000        0.07620000000000
C            0.01120000000000       -1.79740000000000       -0.14570000000000
C           -0.56400000000000       -0.59570000000000       -0.37560000000000
C            0.25720000000000        0.62840000000000       -0.78980000000000
C            0.30710000000000        0.71320000000000       -2.32470000000000
C            1.62590000000000        0.71710000000000       -0.10920000000000
C            2.83510000000000        0.48140000000000       -0.78280000000000
C            4.05880000000000        0.56930000000000       -0.11270000000000
C            4.09530000000000        0.88930000000000        1.24170000000000
C            2.90780000000000        1.11830000000000        1.92970000000000
C            1.68500000000000        1.03130000000000        1.26090000000000
H           -2.71010000000000        2.22120000000000        0.12160000000000
H           -1.40910000000000        1.94270000000000        1.30480000000000
H           -3.06850000000000        2.10930000000000        1.85120000000000
H           -2.24730000000000       -0.28690000000000        1.81970000000000
H           -3.74890000000000        0.04200000000000        0.97150000000000
H           -2.39990000000000        0.14650000000000       -1.22730000000000
H           -3.86580000000000       -1.77780000000000       -0.77770000000000
H           -2.72430000000000       -3.91960000000000       -0.38730000000000
H           -0.34110000000000       -3.88680000000000        0.37400000000000
H            1.08500000000000       -1.95080000000000       -0.18110000000000
H           -0.27110000000000        1.53390000000000       -0.47500000000000
H            0.77370000000000       -0.17330000000000       -2.76940000000000
H            0.87050000000000        1.59430000000000       -2.65210000000000
H           -0.70000000000000        0.79740000000000       -2.74810000000000
H            2.84910000000000        0.21870000000000       -1.83700000000000
H            4.98480000000000        0.38410000000000       -0.65110000000000
H            5.04740000000000        0.95540000000000        1.76080000000000
H            2.93020000000000        1.36110000000000        2.98870000000000
H            0.76930000000000        1.20180000000000        1.82220000000000
35
 energy: -43.873257739167 gnorm: 0.030770562960 xtb: 6.7.1 (edcfbbe)
C           -2.43691932632674        1.71073796745089        1.05188917368954
C           -2.65341407765874        0.20770386335342        0.92618617133693
C           -2.09180352477781       -0.44335279383781       -0.36114195572118
C           -2.78430989364217       -1.77578453381551       -0.51703897030172
C           -2.17068884233744       -2.95134455254600       -0.27476699359865
C           -0.79050971180391       -2.96354851015333        0.04070502990383
C           -0.00779461037841       -1.79692635927918       -0.14620036915452
C           -0.57705836898925       -0.58809962163077       -0.37982071190007
C            0.24526793112835        0.62918735040475       -0.78148165435927
C            0.31754664711048        0.70266228701939       -2.31462540983668
C            1.61186711887959        0.68066521843508       -0.10599216831854
C            2.81422317629810        0.46309523804206       -0.77604680103776
C            4.03216276291874        0.56454445540597       -0.11537167285149
C            4.07469880505975        0.88456320401496        1.23056303536279
C            2.89021489682017        1.10746011029968        1.91218552042302
C            1.67625590482784        1.00745769667723        1.24952966516172
H           -2.70767034389351        2.22219861102507        0.12860859163174
H           -1.40500663084979        1.95229611433077        1.29678260778829
H           -3.06403646780806        2.10793216740793        1.85115121002972
H           -2.22817654435269       -0.30083641952309        1.79663739764545
H           -3.73357175770583        0.02094709311560        0.94522784341440
H           -2.39090185772711        0.18493008777022       -1.21046410327340
H           -3.83477026390909       -1.74670748385141       -0.78005261624827
H           -2.69832024925428       -3.89298382282242       -0.34375868842073
H           -0.31624227941271       -3.88729677594227        0.33768830029235
H            1.06823865703109       -1.92079986213664       -0.12532084032733
H           -0.28867246827121        1.52906395606806       -0.45918734282901
H            0.77620097365136       -0.18680646849796       -2.74667613436205
H            0.88260401799272        1.58053939255038       -2.63157122782943
H           -0.68790310633389        0.78750959342314       -2.72818637599486
H            2.82416270835107        0.21670919193971       -1.82823803900399
H            4.95400294030489        0.38773131084177       -0.65484524594576
H            5.02421636084348        0.95781125602164        1.74580401950917
H            2.91221658916582        1.35905945969504        2.96475837848184
H            0.76409083504920        1.18968157874356        1.80277037664397
35
 energy: -43.875426861344 gnorm: 0.008702877956 xtb: 6.7.1 (edcfbbe)
C           -2.43364590901485        1.71141694017026        1.05481731752298
C           -2.64086792402849        0.20703860108201        0.92204493348398
C           -2.07839892480326       -0.43503686912972       -0.37887564553112
C           -2.76106575738881       -1.75672555238602       -0.52755680184048
C           -2.13777924872982       -2.92912033125202       -0.26411438813361
C           -0.76665786929767       -2.95633689196992        0.02749265637286
C           -0.01188013854723       -1.78618579176031       -0.12420722069476
C           -0.58189867282185       -0.57599316928041       -0.37827501019262
C            0.23966753231139        0.63007280257157       -0.77835746672952
C            0.31970176696296        0.69121923757682       -2.31041276848193
C            1.59819044548651        0.67330323257828       -0.10660522665563
C            2.79343748580336        0.45154792603127       -0.77597782269605
C            4.00784787838232        0.54996873326300       -0.11841007896802
C            4.05468527294877        0.87275956349832        1.22427792349237
C            2.87079078549257        1.09121352194402        1.90587905607828
C            1.66169214741268        0.99234611795886        1.24536674454668
H           -2.71181454917124        2.22189596512844        0.13501461602642
H           -1.40284358487882        1.95616781424583        1.29266557880014
H           -3.05941686508493        2.09815423081583        1.85664750488203
H           -2.20591869913439       -0.30895885997333        1.78038494469906
H           -3.71667879726864        0.00922473662123        0.93265283853144
H           -2.38398503597202        0.22286602505456       -1.20707167056036
H           -3.81205528017320       -1.72692470224044       -0.77831390309685
H           -2.67910084979398       -3.86482617961085       -0.30724270928001
H           -0.28520716766173       -3.88461375182319        0.28935937991026
H            1.06668031600667       -1.87855844058927       -0.08035027586993
H           -0.29680804071733        1.52823130839113       -0.45883222927288
H            0.77600733727400       -0.20631986453735       -2.71862738462939
H            0.89325133048049        1.56149048456456       -2.62247558378920
H           -0.68229587491367        0.77511356136532       -2.72552850421131
H            2.79643459526363        0.20196772893612       -1.82474202238224
H            4.92619090785174        0.38319184694578       -0.66277453939814
H            5.00340467826587        0.95883795805948        1.73393468209061
H            2.89226461185565        1.35204551627140        2.95396239470205
H            0.74827209760331        1.16952655147851        1.79395068127498
35
 energy: -43.875802552813 gnorm: 0.005411684334 xtb: 6.7.1 (edcfbbe)
C           -2.43328949243908        1.71198651189860        1.05857936811500
C           -2.63595835201726        0.20758367368476        0.92282863275842
C           -2.07449798651285       -0.42978711494751       -0.38719037747314
C           -2.75412793970578       -1.75212949207368       -0.53022861607745
C           -2.12507555969273       -2.92096615828243       -0.25944995394614
C           -0.75128991454755       -2.94718641020420        0.02223861135534
C           -0.00341608748132       -1.77186959535259       -0.11481026870548
C           -0.58117349885953       -0.56585881030260       -0.38076736232240
C            0.23623136391555        0.63772971840203       -0.78154176254605
C            0.32042985773387        0.68435034443162       -2.31444652403472
C            1.58998152341919        0.67277401354884       -0.10776179052107
C            2.78377331515473        0.44408669693904       -0.77783302317253
C            3.99797868250844        0.54272722698035       -0.11985404305797
C            4.04402194785728        0.86773430809363        1.22302817172851
C            2.85965465601505        1.08383772517158        1.90678809324747
C            1.65040120576058        0.98540222436425        1.24643966379952
H           -2.72036510918508        2.22431376504007        0.14211748846016
H           -1.40179401021935        1.96084633525595        1.29030071585721
H           -3.05531022562189        2.09246605279750        1.86633463837589
H           -2.19115558693657       -0.31036947990397        1.77447886069561
H           -3.70982418053063        0.00424192660325        0.93735482532768
H           -2.38404370709882        0.23652475952196       -1.20709956023564
H           -3.80546323567948       -1.72805473933993       -0.77726404886629
H           -2.67125198051454       -3.85399830786833       -0.29508122376813
H           -0.26311065538937       -3.87762290287736        0.26524068946850
H            1.07713828900976       -1.84249625257731       -0.05148767044228
H           -0.29945594052786        1.53863597397837       -0.46771275383496
H            0.77251805321824       -0.22229853761324       -2.70824150731416
H            0.90204555075008        1.54684627357434       -2.63216970966559
H           -0.67914979340867        0.76918082879116       -2.73429320190240
H            2.78378752729019        0.19226440075482       -1.82628733426436
H            4.91514928876488        0.37025643100224       -0.66420695594853
H            4.99225978699145        0.95198764386267        1.73261618236345
H            2.88027090268167        1.33874563674601        2.95617965567103
H            0.73431130529735        1.15811532989973        1.79290209087567
35
 energy: -43.875975842892 gnorm: 0.002775480016 xtb: 6.7.1 (edcfbbe)
C           -2.43480565703792        1.71256971691426        1.06417321965862
C           -2.63172746864311        0.20821492671344        0.92632792653866
C           -2.07449963635271       -0.42445284627431       -0.39239456219509
C           -2.74876836395888       -1.75079074908565       -0.53156450708719
C           -2.11211741785440       -2.91476273877341       -0.25881855843470
C           -0.73774676617972       -2.93372818423843        0.02493767360046
C            0.00487931828818       -1.75476454581995       -0.10544008727146
C           -0.58131653838015       -0.55398914315175       -0.38194169513409
C            0.23386899164753        0.64727466624356       -0.78859047493485
C            0.32092679612548        0.67696708447342       -2.32250642373190
C            1.58437764983321        0.68078528960304       -0.11196327384736
C            2.77821753249874        0.44314472681902       -0.78017121195996
C            3.99124931046908        0.53320133333209       -0.11797486670851
C            4.03388559444397        0.85674836608259        1.22576186774002
C            2.84884666582495        1.07339175978889        1.90945029256966
C            1.64025208653994        0.98342478605176        1.24573701455982
H           -2.73393768398074        2.22746782456177        0.15244175694557
H           -1.40199037510690        1.96654309956307        1.28650354484901
H           -3.05030244512712        2.08724944086451        1.88026811785105
H           -2.17579521496037       -0.31046002242202        1.77159654255859
H           -3.70383234750019       -0.00124479079617        0.94812258812740
H           -2.38826638995043        0.24391578514144       -1.20723218650197
H           -3.80086838244385       -1.73520807574358       -0.77530760252864
H           -2.65741512566044       -3.84767536948262       -0.29165277848134
H           -0.24269774849412       -3.86437785662032        0.25371878085600
H            1.08388814599391       -1.81079836720599       -0.03770158257709
H           -0.30028489763328        1.55290883003211       -0.48466943867045
H            0.76576796867579       -0.23986328046640       -2.70282723099695
H            0.91135554305473        1.52986918297298       -2.65084005240051
H           -0.67678897623427        0.76441698428843       -2.74637530739756
H            2.77700106882194        0.18779552525843       -1.82800214850082
H            4.90849711415180        0.35451077839490       -0.66064933521779
H            4.98145026581387        0.93976757787603        1.73675595950663
H            2.86781663403417        1.32102830167373        2.96089086921258
H            0.72108074928123        1.15091998343053        1.78963717000442
35
 energy: -43.876069812414 gnorm: 0.002893363621 xtb: 6.7.1 (edcfbbe)
C           -2.43722453252558        1.71259184972628        1.06961028803574
C           -2.62891254482480        0.20818745412626        0.93142516388841
C           -2.07576550754899       -0.42013171950194       -0.39268161227157
C           -2.74474085900804       -1.75022924300498       -0.53074901967238
C           -2.10250850339767       -2.91070179985782       -0.25811515349589
C           -0.72786225746045       -2.92224032552809        0.02892287428499
C            0.01044827763466       -1.74135307382269       -0.10393592491185
C           -0.58187300923830       -0.54432923698205       -0.38473955519842
C            0.23267777110952        0.65552750603937       -0.79779632189709
C            0.32118969625930        0.67083835965897       -2.33212356068042
C            1.58144234512053        0.68824188847226       -0.11716891963847
C            2.77654236364121        0.44596788210011       -0.78209283923459
C            3.98781548230599        0.52700926720046       -0.11470155926056
C            4.02613748091422        0.84585057085826        1.23030518164992
C            2.83990221907575        1.06430764738469        1.91146980739600
C            1.63291641775977        0.98324070999361        1.24294882029787
H           -2.74885596151231        2.22886957780444        0.16255866208007
H           -1.40285512431415        1.97103485709417        1.28082423488033
H           -3.04492861945888        2.08317340339125        1.89390390597614
H           -2.16382142557727       -0.30957606312156        1.77216290005546
H           -3.69979846706141       -0.00638968791976        0.96091137204151
H           -2.39422301876431        0.24732234926707       -1.20496982753797
H           -3.79675942844536       -1.74119075494914       -0.77525290672207
H           -2.64333951344807       -3.84564356539661       -0.29332080357407
H           -0.22854299199788       -3.85012914209868        0.25682238485559
H            1.08856004476819       -1.78900381018576       -0.03062670598863
H           -0.30034029563027        1.56512225398150       -0.50263172314907
H            0.75871155606787       -0.25358431089181       -2.70310088876864
H            0.91877866753895        1.51539291242802       -2.66978121791760
H           -0.67552446462435        0.76201585716645       -2.75802336887145
H            2.77658624964571        0.19245850294984       -1.83044836782169
H            4.90601724891273        0.34248639448007       -0.65416132615410
H            4.97233126353092        0.92186538867166        1.74528780335413
H            2.85645140593119        1.30349668515271        2.96516902850839
H            0.71156803462150        1.14950141531266        1.78379917546234
35
 energy: -43.876163002192 gnorm: 0.003251423856 xtb: 6.7.1 (edcfbbe)
C           -2.44052295609334        1.71251264700544        1.07568687629896
C           -2.62516828059736        0.20755399828911        0.93860281599471
C           -2.07710023377556       -0.41541505148204       -0.38976756871047
C           -2.73969839003191       -1.74922337225379       -0.52921041338861
C           -2.09233144909944       -2.90661983643549       -0.25760890638120
C           -0.71802785657087       -2.91052231803239        0.03452468977775
C            0.01527263749461       -1.72729846220656       -0.10286707848188
C           -0.58241734218618       -0.53362254798097       -0.38669756060207
C            0.23168345508666        0.66434457999214       -0.80971577839143
C            0.32214500695375        0.66379812870545       -2.34391730928728
C            1.57905819880115        0.69725586245489       -0.12453717333620
C            2.77630709105798        0.45270479022890       -0.78472191532749
C            3.98469556618760        0.52122451882405       -0.11007381677406
C            4.01728680125594        0.83054158898529        1.23720938104373
C            2.82905616286676        1.05332515695443        1.91314053889415
C            1.62507251313952        0.98453254499848        1.23754290545147
H           -2.76941405746840        2.22854042652349        0.17444220601735
H           -1.40409248079048        1.97677601742690        1.27028900769702
H           -3.03704674059948        2.07892305128627        1.91031271375197
H           -2.15023771806483       -0.30790840033445        1.77510147313091
H           -3.69464268424000       -0.01360698296324        0.97683522067878
H           -2.40178410290375        0.25093493360004       -1.19976026966965
H           -3.79132884635282       -1.74593607979828       -0.77599228729273
H           -2.62681326599329       -3.84520646344482       -0.29590084004910
H           -0.21510925280925       -3.83464294236889        0.26771462149883
H            1.09211339192417       -1.77063868219550       -0.03124616367604
H           -0.30052404171300        1.57775281113835       -0.52414039898309
H            0.75148960537787       -0.26793425913622       -2.70561166452706
H            0.92672546976008        1.49949351276347       -2.69120168061014
H           -0.67378920946822        0.75964354691199       -2.77107427073676
H            2.77973880473169        0.20494973574956       -1.83446288401169
H            4.90469139036719        0.33223860425149       -0.64506454232626
H            4.96126111358681        0.89540291023782        1.75852834339936
H            2.84188900034316        1.28401582360682        2.96895142869244
H            0.70176269982306        1.15211020869730        1.77439030023626
35
 energy: -43.876243216835 gnorm: 0.002624453156 xtb: 6.7.1 (edcfbbe)
C           -2.44441192938285        1.71209967772490        1.08286976822636
C           -2.61952633936984        0.20596711145599        0.94733999696592
C           -2.07717172374521       -0.40989504121401       -0.38529610796943
C           -2.73319811368954       -1.74680130823243       -0.52699924950145
C           -2.08148506930199       -2.90142398118500       -0.25462760725510
C           -0.70773927056369       -2.89820976260307        0.04129033396364
C            0.02008519292862       -1.71307128411070       -0.10426209174156
C           -0.58215156997468       -0.52234266053227       -0.39068428684518
C            0.23091042537864        0.67363229078230       -0.82443669203331
C            0.32385036520882        0.65604074668513       -2.35795306345648
C            1.57642514793095        0.70769371020425       -0.13422491198832
C            2.77654877915755        0.46276901655465       -0.78846582744869
C            3.98065447798661        0.51545424620242       -0.10453371226542
C            4.00606461947554        0.81062223862755        1.24605988164997
C            2.81495883385688        1.04024782183781        1.91431796108406
C            1.61550906446965        0.98684789538292        1.22951534361073
H           -2.79628088771845        2.22641690817590        0.18916875367664
H           -1.40575728640406        1.98397197062040        1.25493017041801
H           -3.02588986524323        2.07312368830845        1.93055482411405
H           -2.13370721226980       -0.30609475732832        1.77963111280259
H           -3.68716389040568       -0.02329125665533        0.99529323806543
H           -2.40951206465855        0.25663847434021       -1.19226745799315
H           -3.78406120446959       -1.74815886546492       -0.77736949842914
H           -2.60874685611868       -3.84432027739421       -0.29614440232315
H           -0.20137633818882       -3.81814855047419        0.28362051653453
H            1.09726665906652       -1.75354518933759       -0.03362786850515
H           -0.30158160934873        1.59001182724010       -0.54879053386609
H            0.74621317247451       -0.28260068265328       -2.70886748414199
H            0.93460807886643        1.48311298831291       -2.71422779785686
H           -0.67110066715515        0.75528440350993       -2.78691569421408
H            2.78562219337914        0.22465187480682       -1.84045696584080
H            4.90313707399188        0.32348604867260       -0.63403332116438
H            4.94662737385561        0.85917268186162        1.77601410642274
H            2.82237205356245        1.26241712112920        2.97199342303887
H            0.69020838641853        1.15824087474807        1.76128514426683
35
 energy: -43.876285463527 gnorm: 0.001941607069 xtb: 6.7.1 (edcfbbe)
C           -2.44706945770433        1.71155577567673        1.08889621947980
C           -2.61325569791351        0.20419772666819        0.95383945448836
C           -2.07547544771040       -0.40561747814945       -0.38225340288800
C           -2.72765017840948       -1.74396836204746       -0.52561076193225
C           -2.07371635499843       -2.89673367813031       -0.25038122228738
C           -0.70043471703908       -2.88936134732723        0.04691370499973
C            0.02409752049944       -1.70306097151663       -0.10452255369277
C           -0.58051363480349       -0.51423842926450       -0.39399167011569
C            0.23038717059601        0.68028985944347       -0.83635612673715
C            0.32610015454956        0.65041182491321       -2.36916025785939
C            1.57396703872851        0.71587614400558       -0.14252311863689
C            2.77663991630585        0.47167094050060       -0.79183385520594
C            3.97662006474691        0.51176930906879       -0.10015547404299
C            3.99576482606800        0.79415694046810        1.25330399265489
C            2.80212192739981        1.03009969762509        1.91479367680133
C            1.60697409000785        0.98929614317785        1.22221815767716
H           -2.81945561611185        2.22387690680165        0.20245491363514
H           -1.40733048286527        1.99054665042912        1.24100899723148
H           -3.01508195791929        2.06708123841974        1.94779860543613
H           -2.11889631630100       -0.30505395695615        1.78291532545764
H           -3.67909270028397       -0.03207727515268        1.00892541899478
H           -2.41337504051625        0.26244943003740       -1.18623545572584
H           -3.77798490931218       -1.74753988018450       -0.77813727000049
H           -2.59706246344726       -3.84215620440130       -0.29104869410428
H           -0.19206996338798       -3.80666541777554        0.29630448578892
H            1.10187537494038       -1.74371582017280       -0.04002666772607
H           -0.30362052766959        1.59777404319242       -0.56764206131585
H            0.74665569005821       -0.29198232086556       -2.71114592104387
H            0.93912063163537        1.47285267820084       -2.73109115141773
H           -0.66789469713983        0.74864623013080       -2.80047236073113
H            2.79142763619442        0.24285688333074       -1.84587612073166
H            4.90128707418505        0.31846418773308       -0.62514050848099
H            4.93282676700710        0.82771800366996        1.79060136994385
H            2.80423162992852        1.24589992989888        2.97367315844442
H            0.68008265068193        1.16468059855049        1.74965717364353
35
 energy: -43.876312886034 gnorm: 0.001463566198 xtb: 6.7.1 (edcfbbe)
C           -2.44837446354022        1.71070787956649        1.09423219945059
C           -2.60509774738763        0.20210521090162        0.95888725848902
C           -2.07219637448003       -0.40229079687333       -0.38100263968364
C           -2.72357598042878       -1.74069690038785       -0.52386782168307
C           -2.06950360086440       -2.89221689432956       -0.24265702571198
C           -0.69606358647380       -2.88306436235532        0.05193814073222
C            0.02766676904972       -1.69737238066286       -0.10818659049188
C           -0.57748735464630       -0.50960866537148       -0.40001411318941
C            0.23031480663646        0.68464648008582       -0.84729877862305
C            0.32935438477164        0.64694775397099       -2.37925432652516
C            1.57160662089604        0.72327065323576       -0.15033081821337
C            2.77695963749095        0.48070304461761       -0.79490536070060
C            3.97249690076379        0.50961367848775       -0.09580094143789
C            3.98519387792076        0.77988322343758        1.26013820250111
C            2.78911457454412        1.02150620785752        1.91521174664799
C            1.59848030021399        0.99181700976978        1.21525065047178
H           -2.84240564782183        2.22076236220932        0.21636649196791
H           -1.40859710090708        1.99771576861016        1.22581627998480
H           -3.00210616395028        2.05944573755510        1.96461734750985
H           -2.10235827380616       -0.30448833208307        1.78473369544666
H           -3.66890568640360       -0.04095507053128        1.02073726274930
H           -2.41411332897234        0.26823785694655       -1.18167847476650
H           -3.77351527783951       -1.74443911688192       -0.77753705874431
H           -2.59190234346940       -3.83828467912174       -0.27903823689697
H           -0.18678179870805       -3.79878599610439        0.30650471177103
H            1.10714207296963       -1.73988219603993       -0.04847611760088
H           -0.30700357343339        1.60131781244525       -0.58313352395810
H            0.75500955991536       -0.29545345423038       -2.71379901734357
H            0.93957361299314        1.46971646571426       -2.74377125042667
H           -0.66391540780933        0.73787766395733       -2.81364119380250
H            2.79809492721113        0.26055862703619       -1.85060802743086
H            4.89941301651064        0.31663861384879       -0.61674290182747
H            4.91832850819292        0.80032072857371        1.80379464225523
H            2.78537514084654        1.23266650173984        2.97478166534525
H            0.66997900001502        1.17107956440422        1.73843392373606
35
 energy: -43.876305264341 gnorm: 0.003118213922 xtb: 6.7.1 (edcfbbe)
C           -2.44966896983624        1.70986648773633        1.09948772063943
C           -2.59711593405614        0.20003933722236        0.96384453972979
C           -2.06896237111271       -0.39901458410878       -0.37974848291294
C           -2.71954075267614       -1.73747173480260       -0.52216691530411
C           -2.06533794970176       -2.88777290879244       -0.23506464709396
C           -0.69175106548188       -2.87686840223075        0.05688871502708
C            0.03117116910940       -1.69177098618588       -0.11178240074216
C           -0.57450874218905       -0.50504361928214       -0.40592315912133
C            0.23024320901625        0.68893778092167       -0.85804540927154
C            0.33253353776671        0.64353744413869       -2.38916017676270
C            1.56929204880546        0.73055620530568       -0.15801841718182
C            2.77727396257854        0.48959993631114       -0.79794127979935
C            3.96843896906125        0.50746934253425       -0.09153632516107
C            3.97480838346470        0.76579095287154        1.26684831166476
C            2.77633728897764        1.01304506674026        1.91560381827370
C            1.59014551665124        0.99431996752838        1.20838075528883
H           -2.86489581797891        2.21769308798596        0.23002096564808
H           -1.40986063121814        2.00472020695210        1.21096110509787
H           -2.98941363537051        2.05195552305622        1.98111088833266
H           -2.08619866559794       -0.30395045399232        1.78654548520914
H           -3.65893563490397       -0.04966891843225        1.03228628343451
H           -2.41482636630635        0.27394429860312       -1.17718012145559
H           -3.76908054583111       -1.74137308793317       -0.77699759510579
H           -2.58677751571438       -3.83448984027537       -0.26727803619722