      -----------------------------------------------------------      
     |                   =====================                   |     
     |                           x T B                           |     
     |                   =====================                   |     
     |                         S. Grimme                         |     
     |          Mulliken Center for Theoretical Chemistry        |     
     |                    University of Bonn                     |     
      -----------------------------------------------------------      

   * xtb version 6.7.1 (edcfbbe) compiled by 'conda@c0858423619e' on 2025-09-04

   xtb is free software: you can redistribute it and/or modify it under
   the terms of the GNU Lesser General Public License as published by
   the Free Software Foundation, either version 3 of the License, or
   (at your option) any later version.
   
   xtb is distributed in the hope that it will be useful,
   but WITHOUT ANY WARRANTY; without even the implied warranty of
   MERCHANTABILITY or FITNESS FOR A PARTICULAR PURPOSE.  See the
   GNU Lesser General Public License for more details.
   
   Cite this work as:
   * C. Bannwarth, E. Caldeweyher, S. Ehlert, A. Hansen, P. Pracht,
     J. Seibert, S. Spicher, S. Grimme, WIREs Comput. Mol. Sci., 2020, 11,
     e01493. DOI: 10.1002/wcms.1493
   
   for GFN2-xTB:
   * C. Bannwarth, S. Ehlert and S. Grimme., J. Chem. Theory Comput., 2019,
     15, 1652-1671. DOI: 10.1021/acs.jctc.8b01176
   for GFN1-xTB:
   * S. Grimme, C. Bannwarth, P. Shushkov, J. Chem. Theory Comput., 2017,
     13, 1989-2009. DOI: 10.1021/acs.jctc.7b00118
   for GFN0-xTB:
   * P. Pracht, E. Caldeweyher, S. Ehlert, S. Grimme, ChemRxiv, 2019, preprint.
     DOI: 10.26434/chemrxiv.8326202.v1
   for GFN-FF:
   * S. Spicher and S. Grimme, Angew. Chem. Int. Ed., 2020, 59, 15665-15673.
     DOI: 10.1002/anie.202004239
   
   for ALPB and GBSA implicit solvation:
   * S. Ehlert, M. Stahn, S. Spicher, S. Grimme, J. Chem. Theory Comput.,
     2021, 17, 4250-4261. DOI: 10.1021/acs.jctc.1c00471
   
   for ddCOSMO and CPCM-X implicit solvation:
   * M. Stahn, S. Ehlert, S. Grimme, J. Phys. Chem. A,
     2023, XX, XXXX-XXXX. DOI: 10.1021/acs.jpca.3c04382
   
   for DFT-D4:
   * E. Caldeweyher, C. Bannwarth and S. Grimme, J. Chem. Phys., 2017,
     147, 034112. DOI: 10.1063/1.4993215
   * E. Caldeweyher, S. Ehlert, A. Hansen, H. Neugebauer, S. Spicher,
     C. Bannwarth and S. Grimme, J. Chem. Phys., 2019, 150, 154122.
     DOI: 10.1063/1.5090222
   * E. Caldeweyher, J.-M. Mewes, S. Ehlert and S. Grimme, Phys. Chem. Chem. Phys.
     2020, 22, 8499-8512. DOI: 10.1039/D0CP00502A
   
   for sTDA-xTB:
   * S. Grimme and C. Bannwarth, J. Chem. Phys., 2016, 145, 054103.
     DOI: 10.1063/1.4959605
   
   in the mass-spec context:
   * V. Asgeirsson, C. Bauer and S. Grimme, Chem. Sci., 2017, 8, 4879.
     DOI: 10.1039/c7sc00601b
   * J. Koopman and S. Grimme, ACS Omega 2019, 4, 12, 15120-15133.
     DOI: 10.1021/acsomega.9b02011
   
   for metadynamics refer to:
   * S. Grimme, J. Chem. Theory Comput., 2019, 155, 2847-2862
     DOI: 10.1021/acs.jctc.9b00143
   
   for SPH calculations refer to:
   * S. Spicher and S. Grimme, J. Chem. Theory Comput., 2021, 17, 1701-1714
     DOI: 10.1021/acs.jctc.0c01306
   
   for ONIOM refer to:
   * C. Plett, A. Katbashev, S. Ehlert, S. Grimme, M. Bursch,
     Phys. Chem. Chem. Phys., 2023, 25, 17860-17868. DOI: 10.1039/D3CP02178E
   
   for DIPRO refer to:
   * J. Kohn, N. Gildemeister, S. Grimme, D. Fazzi, A. Hansen,
     J. Chem. Phys., 2023, just accepted.
   
   for PTB refer to:
   * S. Grimme, M. Mueller, A. Hansen, J. Chem. Phys., 2023, 158, 124111.
     DOI: 10.1063/5.0137838
   
   with help from (in alphabetical order)
   P. Atkinson, C. Bannwarth, F. Bohle, G. Brandenburg, E. Caldeweyher
   M. Checinski, S. Dohm, S. Ehlert, S. Ehrlich, I. Gerasimov, C. Hölzer
   A. Katbashev, J. Kohn, J. Koopman, C. Lavigne, S. Lehtola, F. März, M. Müller,
   F. Musil, H. Neugebauer, J. Pisarek, C. Plett, P. Pracht, F. Pultar,
   J. Seibert, P. Shushkov, S. Spicher, M. Stahn, M. Steiner, T. Strunk,
   J. Stückrath, T. Rose, and J. Unsleber
   
 * started run on 2025/09/15 at 14:21:07.128     
   ID    Z sym.   atoms
    1    6 C      1-16
    2    1 H      17-35

           -------------------------------------------------
          |                Calculation Setup                |
           -------------------------------------------------

          program call               : /home/paufv/miniforge3/envs/htvs/bin/xtb gfn_opt.xyz --opt normal --parallel 4 --chrg 0 --uhf 0 --gfn2 --input xtb.inp
          coordinate file            : gfn_opt.xyz
          omp threads                :                     4

########################################################################
[WARNING] Please study the warnings concerning your input carefully
-3- set_opt: the key 'uhf' is not recognized by opt
-2- set_opt: the key 'charge' is not recognized by opt
-1- set_opt: the key 'method' is not recognized by opt
########################################################################

           -------------------------------------------------
          |                 G F N 2 - x T B                 |
           -------------------------------------------------

        Reference                      10.1021/acs.jctc.8b01176
      * Hamiltonian:
        H0-scaling (s, p, d)           1.850000    2.230000    2.230000
        zeta-weighting                 0.500000
      * Dispersion:
        s8                             2.700000
        a1                             0.520000
        a2                             5.000000
        s9                             5.000000
      * Repulsion:
        kExp                           1.500000    1.000000
        rExp                           1.000000
      * Coulomb:
        alpha                          2.000000
        third order                    shell-resolved
        anisotropic                    true
        a3                             3.000000
        a5                             4.000000
        cn-shift                       1.200000
        cn-exp                         4.000000
        max-rad                        5.000000

q/qsh data taken from xtbrestart
CAMM data taken from xtbrestart

          ...................................................
          :                      SETUP                      :
          :.................................................:
          :  # basis functions                  83          :
          :  # atomic orbitals                  83          :
          :  # shells                           51          :
          :  # electrons                        83          :
          :  max. iterations                   250          :
          :  Hamiltonian                  GFN2-xTB          :
          :  restarted?                       true          :
          :  GBSA solvation                  false          :
          :  PC potential                    false          :
          :  electronic temp.          300.0000000     K    :
          :  accuracy                    1.0000000          :
          :  -> integral cutoff          0.2500000E+02      :
          :  -> integral neglect         0.1000000E-07      :
          :  -> SCF convergence          0.1000000E-05 Eh   :
          :  -> wf. convergence          0.1000000E-03 e    :
          :  Broyden damping             0.4000000          :
          :  net charge                          0          :
          :  unpaired electrons                  0          :
          ...................................................

 iter      E             dE          RMSdq      gap      omega  full diag
   1    -44.5978764 -0.445979E+02  0.525E+00    2.13       0.0  T
   2    -44.6008336 -0.295716E-02  0.310E+00    2.11       1.0  T
   3    -44.5761544  0.246792E-01  0.810E-01    2.11       1.0  T
   4    -44.6036778 -0.275235E-01  0.123E-01    2.17       1.0  T
   5    -44.6038042 -0.126342E-03  0.695E-02    2.16       1.0  T
   6    -44.6038180 -0.138107E-04  0.266E-02    2.16       1.0  T
   7    -44.6038351 -0.170836E-04  0.562E-03    2.16       3.0  T
   8    -44.6038357 -0.646082E-06  0.272E-03    2.16       6.2  T
   9    -44.6038357 -0.369597E-07  0.111E-03    2.16      15.3  T
  10    -44.6038358 -0.314191E-07  0.351E-04    2.16      48.1  T
  11    -44.6038358 -0.116786E-08  0.196E-04    2.16      86.1  T

   *** convergence criteria satisfied after 11 iterations ***

         #    Occupation            Energy/Eh            Energy/eV
      -------------------------------------------------------------
         1        2.0000           -0.6386238             -17.3778
       ...           ...                  ...                  ...
        36        2.0000           -0.4195905             -11.4176
        37        2.0000           -0.4089767             -11.1288
        38        2.0000           -0.4054941             -11.0341
        39        2.0000           -0.3984819             -10.8432
        40        2.0000           -0.3917452             -10.6599
        41        2.0000           -0.3884191             -10.5694
        42        1.0000           -0.3012398              -8.1972 (HOMO)
        43                         -0.2218926              -6.0380 (LUMO)
        44                         -0.2217143              -6.0332
        45                         -0.1987293              -5.4077
        46                         -0.1364346              -3.7126
        47                         -0.0967798              -2.6335
       ...                                ...                  ...
        83                          0.6325533              17.2127
      -------------------------------------------------------------
                  HL-Gap            0.0793472 Eh            2.1591 eV
             Fermi-level           -0.3031978 Eh           -8.2504 eV

 SCC (total)                   0 d,  0 h,  0 min,  0.026 sec
 SCC setup                      ...        0 min,  0.000 sec (  0.411%)
 Dispersion                     ...        0 min,  0.000 sec (  1.017%)
 classical contributions        ...        0 min,  0.000 sec (  0.191%)
 integral evaluation            ...        0 min,  0.002 sec (  6.083%)
 iterations                     ...        0 min,  0.020 sec ( 75.552%)
 molecular gradient             ...        0 min,  0.004 sec ( 15.580%)
 printout                       ...        0 min,  0.000 sec (  1.131%)

         :::::::::::::::::::::::::::::::::::::::::::::::::::::
         ::                     SUMMARY                     ::
         :::::::::::::::::::::::::::::::::::::::::::::::::::::
         :: total energy             -43.866289275821 Eh    ::
         :: gradient norm              0.067656186597 Eh/a0 ::
         :: HOMO-LUMO gap              2.159146153106 eV    ::
         ::.................................................::
         :: SCC energy               -44.603133500530 Eh    ::
         :: -> isotropic ES            0.004168727491 Eh    ::
         :: -> anisotropic ES          0.009244296001 Eh    ::
         :: -> anisotropic XC          0.030008762535 Eh    ::
         :: -> dispersion             -0.035141728111 Eh    ::
         :: repulsion energy           0.736844224710 Eh    ::
         :: add. restraining           0.000000000000 Eh    ::
         :: total charge              -0.000000000000 e     ::
         :::::::::::::::::::::::::::::::::::::::::::::::::::::

      ----------------------------------------------------------- 
     |                   =====================                   |
     |                        A N C O P T                        |
     |                   =====================                   |
     |               Approximate Normal Coordinate               |
     |                Rational Function Optimizer                |
      ----------------------------------------------------------- 
      ----------------------------------------------------------- 
     |                   =====================                   |
     |                        A N C O P T                        |
     |                   =====================                   |
     |               Approximate Normal Coordinate               |
     |                Rational Function Optimizer                |
      ----------------------------------------------------------- 

          ...................................................
          :                      SETUP                      :
          :.................................................:
          :   optimization level            normal          :
          :   max. optcycles                   200          :
          :   ANC micro-cycles                  20          :
          :   degrees of freedom                99          :
          :.................................................:
          :   RF solver                   davidson          :
          :   write xtbopt.log                true          :
          :   linear?                        false          :
          :   energy convergence         0.5000000E-05 Eh   :
          :   grad. convergence          0.1000000E-02 Eh/α :
          :   maxmium RF displ.          1.0000000          :
          :   Hlow (freq-cutoff)         0.1000000E-01      :
          :   Hmax (freq-cutoff)         5.0000000          :
          :   S6 in model hess.         20.0000000          :
          ...................................................

generating ANC from exact Hessian ...
Using Lindh-Hessian (1995)
 Shifting diagonal of input Hessian by    9.6023340313252901E-003
 Lowest  eigenvalues of input Hessian
    0.000000    0.000000    0.000000    0.000000    0.000000    0.000000
    0.010000    0.010386    0.010671    0.011571    0.011837    0.013292
    0.014198    0.014905    0.016235    0.017872    0.018260    0.020260
 Highest eigenvalues
    1.683759    1.814769    1.825515    1.895285    1.926952    1.938638


........................................................................
.............................. CYCLE    1 ..............................
........................................................................

 iter      E             dE          RMSdq      gap      omega  full diag
   1    -44.6038358 -0.446038E+02  0.595E-05    2.16       0.0  T
   2    -44.6038358 -0.221689E-10  0.412E-05    2.16     410.4  T
   3    -44.6038358 -0.244782E-10  0.244E-05    2.16     692.5  T
     SCC iter.                  ...        0 min,  0.003 sec
     gradient                   ...        0 min,  0.003 sec
 * total energy  :   -43.8662893 Eh     change       -0.3467235E-09 Eh
   gradient norm :     0.0676564 Eh/α   predicted     0.0000000E+00 (-100.00%)
   displ. norm   :     0.3542663 α      lambda       -0.1187314E-01
   maximum displ.:     0.1737672 α      in ANC's #17, #19, #23, ...

........................................................................
.............................. CYCLE    2 ..............................
........................................................................

 iter      E             dE          RMSdq      gap      omega  full diag
   1    -44.6433883 -0.446434E+02  0.233E-01    2.19       0.0  T
   2    -44.6434008 -0.124869E-04  0.141E-01    2.19       1.0  T
   3    -44.6432751  0.125720E-03  0.614E-02    2.18       1.0  T
   4    -44.6434154 -0.140300E-03  0.792E-03    2.19       2.1  T
   5    -44.6434168 -0.142854E-05  0.286E-03    2.19       5.9  T
   6    -44.6434168 -0.131463E-07  0.133E-03    2.19      12.7  T
   7    -44.6434168 -0.267178E-07  0.628E-04    2.19      26.9  T
   8    -44.6434168 -0.103501E-07  0.169E-04    2.19     100.1  T
     SCC iter.                  ...        0 min,  0.007 sec
     gradient                   ...        0 min,  0.003 sec
 * total energy  :   -43.8744821 Eh     change       -0.8192812E-02 Eh
   gradient norm :     0.0310394 Eh/α   predicted    -0.6682632E-02 ( -18.43%)
   displ. norm   :     0.3175798 α      lambda       -0.3875099E-02
   maximum displ.:     0.1812654 α      in ANC's #17, #19, #11, ...

........................................................................
.............................. CYCLE    3 ..............................
........................................................................

 iter      E             dE          RMSdq      gap      omega  full diag
   1    -44.6631299 -0.446631E+02  0.163E-01    2.18       0.0  T
   2    -44.6631351 -0.523055E-05  0.991E-02    2.18       1.0  T
   3    -44.6630348  0.100301E-03  0.536E-02    2.18       1.0  T
   4    -44.6631474 -0.112581E-03  0.602E-03    2.18       2.8  T
   5    -44.6631483 -0.897269E-06  0.207E-03    2.18       8.2  T
   6    -44.6631483 -0.497846E-08  0.736E-04    2.18      23.0  T
   7    -44.6631483 -0.114929E-07  0.291E-04    2.18      58.0  T
     SCC iter.                  ...        0 min,  0.006 sec
     gradient                   ...        0 min,  0.003 sec
 * total energy  :   -43.8767066 Eh     change       -0.2224510E-02 Eh
   gradient norm :     0.0081982 Eh/α   predicted    -0.2132966E-02 (  -4.12%)
   displ. norm   :     0.1630998 α      lambda       -0.5036917E-03
   maximum displ.:     0.0739670 α      in ANC's #17, #2, #13, ...

........................................................................
.............................. CYCLE    4 ..............................
........................................................................

 iter      E             dE          RMSdq      gap      omega  full diag
   1    -44.6626422 -0.446626E+02  0.745E-02    2.17       0.0  T
   2    -44.6626426 -0.389878E-06  0.452E-02    2.17       1.0  T
   3    -44.6626156  0.270593E-04  0.261E-02    2.17       1.0  T
   4    -44.6626459 -0.303797E-04  0.153E-03    2.17      11.1  T
   5    -44.6626460 -0.309564E-07  0.767E-04    2.17      22.0  T
   6    -44.6626460 -0.426999E-08  0.375E-04    2.17      45.1  T
     SCC iter.                  ...        0 min,  0.005 sec
     gradient                   ...        0 min,  0.003 sec
 * total energy  :   -43.8770382 Eh     change       -0.3316090E-03 Eh
   gradient norm :     0.0052389 Eh/α   predicted    -0.2585565E-03 ( -22.03%)
   displ. norm   :     0.1509548 α      lambda       -0.2115738E-03
   maximum displ.:     0.0837803 α      in ANC's #2, #9, #3, ...

........................................................................
.............................. CYCLE    5 ..............................
........................................................................

 iter      E             dE          RMSdq      gap      omega  full diag
   1    -44.6618543 -0.446619E+02  0.523E-02    2.16       0.0  T
   2    -44.6618546 -0.273646E-06  0.310E-02    2.16       1.0  T
   3    -44.6618469  0.769037E-05  0.142E-02    2.16       1.2  T
   4    -44.6618554 -0.848039E-05  0.101E-03    2.16      16.8  T
   5    -44.6618554 -0.189569E-07  0.474E-04    2.16      35.6  T
   6    -44.6618554 -0.430610E-09  0.280E-04    2.16      60.3  T
     SCC iter.                  ...        0 min,  0.005 sec
     gradient                   ...        0 min,  0.003 sec
 * total energy  :   -43.8771747 Eh     change       -0.1364610E-03 Eh
   gradient norm :     0.0023792 Eh/α   predicted    -0.1082097E-03 ( -20.70%)
   displ. norm   :     0.1234633 α      lambda       -0.8853175E-04
   maximum displ.:     0.0789864 α      in ANC's #2, #3, #7, ...

........................................................................
.............................. CYCLE    6 ..............................
........................................................................

 iter      E             dE          RMSdq      gap      omega  full diag
   1    -44.6616653 -0.446617E+02  0.340E-02    2.16       0.0  T
   2    -44.6616655 -0.115417E-06  0.200E-02    2.16       1.0  T
   3    -44.6616650  0.487972E-06  0.357E-03    2.16       4.7  T
   4    -44.6616655 -0.548379E-06  0.665E-04    2.16      25.4  T
   5    -44.6616655 -0.103060E-07  0.329E-04    2.16      51.4  T
     SCC iter.                  ...        0 min,  0.004 sec
     gradient                   ...        0 min,  0.003 sec
 * total energy  :   -43.8772443 Eh     change       -0.6966888E-04 Eh
   gradient norm :     0.0024005 Eh/α   predicted    -0.4497753E-04 ( -35.44%)
   displ. norm   :     0.1653754 α      lambda       -0.9939953E-04
   maximum displ.:     0.1043609 α      in ANC's #2, #3, #7, ...

........................................................................
.............................. CYCLE    7 ..............................
........................................................................

 iter      E             dE          RMSdq      gap      omega  full diag
   1    -44.6618165 -0.446618E+02  0.433E-02    2.17       0.0  T
   2    -44.6618167 -0.163805E-06  0.255E-02    2.17       1.0  T
   3    -44.6618163  0.361982E-06  0.330E-03    2.17       5.1  T
   4    -44.6618168 -0.432037E-06  0.742E-04    2.17      22.8  T
   5    -44.6618168 -0.997306E-08  0.412E-04    2.17      41.0  T
     SCC iter.                  ...        0 min,  0.004 sec
     gradient                   ...        0 min,  0.003 sec
 * total energy  :   -43.8773248 Eh     change       -0.8050714E-04 Eh
   gradient norm :     0.0027354 Eh/α   predicted    -0.5110518E-04 ( -36.52%)
   displ. norm   :     0.2079986 α      lambda       -0.1022534E-03
   maximum displ.:     0.1302777 α      in ANC's #2, #3, #7, ...

........................................................................
.............................. CYCLE    8 ..............................
........................................................................

 iter      E             dE          RMSdq      gap      omega  full diag
   1    -44.6620122 -0.446620E+02  0.566E-02    2.17       0.0  T
   2    -44.6620125 -0.272591E-06  0.333E-02    2.17       1.0  T
   3    -44.6620114  0.100443E-05  0.510E-03    2.17       3.3  T
   4    -44.6620126 -0.114757E-05  0.988E-04    2.17      17.1  T
   5    -44.6620126 -0.206597E-07  0.521E-04    2.17      32.5  T
   6    -44.6620126 -0.271965E-08  0.193E-04    2.17      87.8  T
     SCC iter.                  ...        0 min,  0.005 sec
     gradient                   ...        0 min,  0.003 sec
 * total energy  :   -43.8774045 Eh     change       -0.7967178E-04 Eh
   gradient norm :     0.0022497 Eh/α   predicted    -0.5333893E-04 ( -33.05%)
   displ. norm   :     0.2015974 α      lambda       -0.7383315E-04
   maximum displ.:     0.1274164 α      in ANC's #2, #3, #7, ...

........................................................................
.............................. CYCLE    9 ..............................
........................................................................

 iter      E             dE          RMSdq      gap      omega  full diag
   1    -44.6621860 -0.446622E+02  0.568E-02    2.18       0.0  T
   2    -44.6621863 -0.251437E-06  0.335E-02    2.18       1.0  T
   3    -44.6621843  0.195965E-05  0.686E-03    2.17       2.5  T
   4    -44.6621865 -0.216612E-05  0.101E-03    2.18      16.7  T
   5    -44.6621865 -0.227484E-07  0.479E-04    2.18      35.3  T
   6    -44.6621865 -0.146844E-08  0.195E-04    2.18      86.8  T
     SCC iter.                  ...        0 min,  0.005 sec
     gradient                   ...        0 min,  0.003 sec
 * total energy  :   -43.8774602 Eh     change       -0.5571936E-04 Eh
   gradient norm :     0.0015038 Eh/α   predicted    -0.3842158E-04 ( -31.04%)
   displ. norm   :     0.2453108 α      lambda       -0.4488229E-04
   maximum displ.:     0.1562938 α      in ANC's #2, #3, #7, ...

........................................................................
.............................. CYCLE   10 ..............................
........................................................................

 iter      E             dE          RMSdq      gap      omega  full diag
   1    -44.6624767 -0.446625E+02  0.724E-02    2.18       0.0  T
   2    -44.6624770 -0.348720E-06  0.426E-02    2.18       1.0  T
   3    -44.6624744  0.266471E-05  0.804E-03    2.18       2.1  T
   4    -44.6624773 -0.294758E-05  0.122E-03    2.18      13.9  T
   5    -44.6624773 -0.340660E-07  0.556E-04    2.18      30.4  T
   6    -44.6624773 -0.135910E-08  0.232E-04    2.18      72.7  T
     SCC iter.                  ...        0 min,  0.005 sec
     gradient                   ...        0 min,  0.003 sec
 * total energy  :   -43.8775034 Eh     change       -0.4320015E-04 Eh
   gradient norm :     0.0013640 Eh/α   predicted    -0.2304297E-04 ( -46.66%)
   displ. norm   :     0.1140962 α      lambda       -0.1828162E-04
   maximum displ.:     0.0691045 α      in ANC's #2, #3, #6, ...

........................................................................
.............................. CYCLE   11 ..............................
........................................................................

 iter      E             dE          RMSdq      gap      omega  full diag
   1    -44.6628412 -0.446628E+02  0.360E-02    2.18       0.0  T
   2    -44.6628413 -0.645382E-07  0.212E-02    2.18       1.0  T
   3    -44.6628411  0.225668E-06  0.264E-03    2.18       6.4  T
   4    -44.6628413 -0.260848E-06  0.471E-04    2.18      35.9  T
   5    -44.6628413 -0.469286E-08  0.239E-04    2.18      70.6  T
     SCC iter.                  ...        0 min,  0.004 sec
     gradient                   ...        0 min,  0.003 sec
 * total energy  :   -43.8775247 Eh     change       -0.2121997E-04 Eh
   gradient norm :     0.0008735 Eh/α   predicted    -0.9194253E-05 ( -56.67%)
   displ. norm   :     0.1546378 α      lambda       -0.1949175E-04
   maximum displ.:     0.0844286 α      in ANC's #2, #3, #6, ...

........................................................................
.............................. CYCLE   12 ..............................
........................................................................

 iter      E             dE          RMSdq      gap      omega  full diag
   1    -44.6625722 -0.446626E+02  0.493E-02    2.18       0.0  T
   2    -44.6625723 -0.897590E-07  0.290E-02    2.18       1.0  T
   3    -44.6625722  0.147420E-06  0.239E-03    2.18       7.1  T
   4    -44.6625723 -0.195062E-06  0.507E-04    2.18      33.4  T
   5    -44.6625724 -0.247071E-08  0.295E-04    2.18      57.3  T
     SCC iter.                  ...        0 min,  0.004 sec
     gradient                   ...        0 min,  0.003 sec
 * total energy  :   -43.8775429 Eh     change       -0.1826657E-04 Eh
   gradient norm :     0.0007834 Eh/α   predicted    -0.9851710E-05 ( -46.07%)
   displ. norm   :     0.0715581 α      lambda       -0.6912007E-05
   maximum displ.:     0.0323354 α      in ANC's #1, #3, #2, ...

........................................................................
.............................. CYCLE   13 ..............................
........................................................................

 iter      E             dE          RMSdq      gap      omega  full diag
   1    -44.6628825 -0.446629E+02  0.204E-02    2.18       0.0  T
   2    -44.6628826 -0.308612E-07  0.120E-02    2.18       1.4  T
   3    -44.6628824  0.140343E-06  0.204E-03    2.18       8.3  T
   4    -44.6628826 -0.159348E-06  0.307E-04    2.18      55.1  T
   5    -44.6628826 -0.167750E-08  0.170E-04    2.18      99.6  T
     SCC iter.                  ...        0 min,  0.004 sec
     gradient                   ...        0 min,  0.003 sec
 * total energy  :   -43.8775496 Eh     change       -0.6697836E-05 Eh
   gradient norm :     0.0007221 Eh/α   predicted    -0.3463985E-05 ( -48.28%)
   displ. norm   :     0.0566779 α      lambda       -0.5175984E-05
   maximum displ.:     0.0318212 α      in ANC's #1, #5, #3, ...

........................................................................
.............................. CYCLE   14 ..............................
........................................................................

 iter      E             dE          RMSdq      gap      omega  full diag
   1    -44.6629070 -0.446629E+02  0.138E-02    2.18       0.0  T
   2    -44.6629070 -0.119653E-07  0.811E-03    2.18       2.1  T
   3    -44.6629070  0.105537E-07  0.666E-04    2.18      25.4  T
   4    -44.6629070 -0.146200E-07  0.216E-04    2.18      78.4  T
     SCC iter.                  ...        0 min,  0.004 sec
     gradient                   ...        0 min,  0.003 sec
 * total energy  :   -43.8775560 Eh     change       -0.6399039E-05 Eh
   gradient norm :     0.0005190 Eh/α   predicted    -0.2593066E-05 ( -59.48%)
   displ. norm   :     0.0793078 α      lambda       -0.7910226E-05
   maximum displ.:     0.0476352 α      in ANC's #1, #5, #3, ...

........................................................................
.............................. CYCLE   15 ..............................
........................................................................

 iter      E             dE          RMSdq      gap      omega  full diag
   1    -44.6628395 -0.446628E+02  0.162E-02    2.18       0.0  T
   2    -44.6628395 -0.219996E-07  0.955E-03    2.18       1.8  T
   3    -44.6628394  0.299321E-07  0.111E-03    2.18      15.2  T
   4    -44.6628395 -0.375630E-07  0.322E-04    2.18      52.4  T
   5    -44.6628395 -0.189165E-08  0.149E-04    2.18     113.8  T
     SCC iter.                  ...        0 min,  0.004 sec
     gradient                   ...        0 min,  0.003 sec
 * total energy  :   -43.8775658 Eh     change       -0.9800840E-05 Eh
   gradient norm :     0.0004791 Eh/α   predicted    -0.3967022E-05 ( -59.52%)
   displ. norm   :     0.1286993 α      lambda       -0.1057658E-04
   maximum displ.:     0.0771747 α      in ANC's #1, #5, #3, ...

........................................................................
.............................. CYCLE   16 ..............................
........................................................................

 iter      E             dE          RMSdq      gap      omega  full diag
   1    -44.6628421 -0.446628E+02  0.264E-02    2.18       0.0  T
   2    -44.6628422 -0.513068E-07  0.155E-02    2.18       1.1  T
   3    -44.6628421  0.101942E-06  0.201E-03    2.18       8.4  T
   4    -44.6628422 -0.125407E-06  0.462E-04    2.18      36.6  T
   5    -44.6628422 -0.283088E-08  0.227E-04    2.18      74.3  T
     SCC iter.                  ...        0 min,  0.004 sec
     gradient                   ...        0 min,  0.003 sec
 * total energy  :   -43.8775782 Eh     change       -0.1240027E-04 Eh
   gradient norm :     0.0008215 Eh/α   predicted    -0.5328875E-05 ( -57.03%)
   displ. norm   :     0.1448171 α      lambda       -0.1018847E-04
   maximum displ.:     0.0898547 α      in ANC's #1, #5, #3, ...

........................................................................
.............................. CYCLE   17 ..............................
........................................................................

 iter      E             dE          RMSdq      gap      omega  full diag
   1    -44.6626484 -0.446626E+02  0.299E-02    2.18       0.0  T
   2    -44.6626485 -0.567820E-07  0.176E-02    2.18       1.0  T
   3    -44.6626484  0.483172E-07  0.149E-03    2.18      11.4  T
   4    -44.6626485 -0.705391E-07  0.461E-04    2.18      36.7  T
   5    -44.6626485 -0.274454E-08  0.255E-04    2.18      66.4  T
     SCC iter.                  ...        0 min,  0.004 sec
     gradient                   ...        0 min,  0.003 sec
 * total energy  :   -43.8775905 Eh     change       -0.1225317E-04 Eh
   gradient norm :     0.0009027 Eh/α   predicted    -0.5146746E-05 ( -58.00%)
   displ. norm   :     0.1409295 α      lambda       -0.1066226E-04
   maximum displ.:     0.0899406 α      in ANC's #1, #5, #3, ...

........................................................................
.............................. CYCLE   18 ..............................
........................................................................

 iter      E             dE          RMSdq      gap      omega  full diag
   1    -44.6625506 -0.446626E+02  0.283E-02    2.18       0.0  T
   2    -44.6625507 -0.392591E-07  0.167E-02    2.18       1.0  T
   3    -44.6625506  0.567195E-07  0.152E-03    2.18      11.1  T
   4    -44.6625507 -0.779454E-07  0.393E-04    2.18      43.0  T
   5    -44.6625507 -0.747313E-09  0.199E-04    2.18      84.8  T
     SCC iter.                  ...        0 min,  0.004 sec
     gradient                   ...        0 min,  0.003 sec
 * total energy  :   -43.8776040 Eh     change       -0.1350984E-04 Eh
   gradient norm :     0.0008655 Eh/α   predicted    -0.5383113E-05 ( -60.15%)
   displ. norm   :     0.1629454 α      lambda       -0.1325345E-04
   maximum displ.:     0.1081258 α      in ANC's #1, #3, #5, ...

........................................................................
.............................. CYCLE   19 ..............................
........................................................................

 iter      E             dE          RMSdq      gap      omega  full diag
   1    -44.6625797 -0.446626E+02  0.324E-02    2.18       0.0  T
   2    -44.6625798 -0.581748E-07  0.191E-02    2.18       1.0  T
   3    -44.6625798  0.894843E-08  0.976E-04    2.18      17.3  T
   4    -44.6625798 -0.323123E-07  0.416E-04    2.18      40.7  T
     SCC iter.                  ...        0 min,  0.004 sec
     gradient                   ...        0 min,  0.003 sec
 * total energy  :   -43.8776203 Eh     change       -0.1632109E-04 Eh
   gradient norm :     0.0005679 Eh/α   predicted    -0.6709527E-05 ( -58.89%)
   displ. norm   :     0.1855165 α      lambda       -0.1295213E-04
   maximum displ.:     0.1236388 α      in ANC's #1, #3, #5, ...

........................................................................
.............................. CYCLE   20 ..............................
........................................................................

 iter      E             dE          RMSdq      gap      omega  full diag
   1    -44.6622841 -0.446623E+02  0.381E-02    2.18       0.0  T
   2    -44.6622841 -0.729557E-07  0.225E-02    2.18       1.0  T
   3    -44.6622836  0.492270E-06  0.354E-03    2.18       4.8  T
   4    -44.6622842 -0.554591E-06  0.512E-04    2.18      33.0  T
   5    -44.6622842 -0.335238E-08  0.268E-04    2.18      63.2  T
     SCC iter.                  ...        0 min,  0.004 sec
     gradient                   ...        0 min,  0.003 sec
 * total energy  :   -43.8776348 Eh     change       -0.1453910E-04 Eh
   gradient norm :     0.0007391 Eh/α   predicted    -0.6577126E-05 ( -54.76%)
   displ. norm   :     0.1428694 α      lambda       -0.8114680E-05
   maximum displ.:     0.0955059 α      in ANC's #1, #3, #5, ...
 * RMSD in coord.:     0.3644235 α      energy gain  -0.1134557E-01 Eh

generating ANC from exact Hessian ...
Using Lindh-Hessian (1995)
 Shifting diagonal of input Hessian by    9.5428976747598468E-003
 Lowest  eigenvalues of input Hessian
    0.000000    0.000000    0.000000    0.000000    0.000000    0.000000
    0.010000    0.010466    0.010728    0.011763    0.011917    0.013526
    0.014656    0.015389    0.016883    0.018752    0.019108    0.020529
 Highest eigenvalues
    1.741153    1.898736    1.920449    1.959559    2.002557    2.024271


........................................................................
.............................. CYCLE   21 ..............................
........................................................................

 iter      E             dE          RMSdq      gap      omega  full diag
   1    -44.6626198 -0.446626E+02  0.295E-02    2.18       0.0  T
   2    -44.6626199 -0.512684E-07  0.174E-02    2.18       1.0  T
   3    -44.6626196  0.241668E-06  0.252E-03    2.18       6.7  T
   4    -44.6626199 -0.275906E-06  0.465E-04    2.18      36.3  T
   5    -44.6626199 -0.376647E-08  0.234E-04    2.18      72.1  T
     SCC iter.                  ...        0 min,  0.004 sec
     gradient                   ...        0 min,  0.003 sec
 * total energy  :   -43.8776435 Eh     change       -0.8678032E-05 Eh
   gradient norm :     0.0006873 Eh/α   predicted     0.0000000E+00 (-100.00%)
   displ. norm   :     0.0183618 α      lambda       -0.2821760E-05
   maximum displ.:     0.0118908 α      in ANC's #1, #7, #6, ...

........................................................................
.............................. CYCLE   22 ..............................
........................................................................

 iter      E             dE          RMSdq      gap      omega  full diag
   1    -44.6628313 -0.446628E+02  0.510E-03    2.18       0.0  T
   2    -44.6628313 -0.478375E-08  0.302E-03    2.18       5.6  T
   3    -44.6628313  0.265700E-07  0.873E-04    2.18      19.4  T
   4    -44.6628313 -0.297674E-07  0.126E-04    2.18     134.1  T
     SCC iter.                  ...        0 min,  0.004 sec
     gradient                   ...        0 min,  0.003 sec
 * total energy  :   -43.8776465 Eh     change       -0.2986745E-05 Eh
   gradient norm :     0.0002822 Eh/α   predicted    -0.1422922E-05 ( -52.36%)
   displ. norm   :     0.0323757 α      lambda       -0.2791395E-05
   maximum displ.:     0.0222000 α      in ANC's #1, #7, #6, ...

   *** GEOMETRY OPTIMIZATION CONVERGED AFTER 22 ITERATIONS ***

------------------------------------------------------------------------
 total energy gain   :        -0.0113572 Eh       -7.1268 kcal/mol
 total RMSD          :         0.3654053 a0        0.1934 Å
 total power (kW/mol):        -1.3553822 (step) -130.7881 (real)
------------------------------------------------------------------------

 ANCopt (total)                0 d,  0 h,  0 min,  0.228 sec
 optimizer setup                ...        0 min,  0.000 sec (  0.028%)
 model hessian                  ...        0 min,  0.022 sec (  9.788%)
 ANC generation                 ...        0 min,  0.001 sec (  0.649%)
 coordinate transformation      ...        0 min,  0.000 sec (  0.058%)
 single point calculation       ...        0 min,  0.201 sec ( 88.108%)
 optimization log               ...        0 min,  0.001 sec (  0.635%)
 hessian update                 ...        0 min,  0.000 sec (  0.082%)
 rational function              ...        0 min,  0.001 sec (  0.421%)

================
 final structure:
================
35
 xtb: 6.7.1 (edcfbbe)
C           -2.86428165770765        0.40763021255262       -1.42336575443207
C           -2.64463264543328       -0.71551440254282       -0.41990829018368
C           -1.15294104753968       -0.98372170573708       -0.03659878344312
C           -1.15994986635894       -2.26598938253103        0.73187805889926
C           -1.14514143833342       -2.27810247679956        2.08567757244905
C           -0.95248260027164       -1.08896290257840        2.80824840223631
C           -0.58355765084108        0.07734431404965        2.12650616220647
C           -0.56485801539174        0.14220188345617        0.76386320248302
C            0.09536886946459        1.24788792448500       -0.01401854541264
C            0.55407841770294        2.43965374763441        0.83033673028216
C            1.29084722310578        0.67839520275346       -0.75338656162560
C            1.49964439148679        0.97035375062756       -2.09418022227284
C            2.60197837358011        0.46691867007730       -2.76286298177110
C            3.50891608446670       -0.33817778860804       -2.09645473795597
C            3.30795481751462       -0.63526008539974       -0.75877551152268
C            2.20700780745776       -0.12988004502313       -0.09196340544421
H           -2.70257169116857        1.38177646398945       -0.96959622371870
H           -3.89027213063156        0.37759781649978       -1.78621281206330
H           -2.19941189614797        0.29793218044540       -2.27809851399371
H           -3.03663258589236       -1.64428376776517       -0.84126681738163
H           -3.19729225430019       -0.50694945570248        0.49783525927999
H           -0.59953451511346       -1.10408514800421       -0.97683291869171
H           -1.27869256598840       -3.17691271428518        0.16467568120957
H           -1.24216585349966       -3.21034295977184        2.62436100123677
H           -0.97891466601137       -1.09811940052763        3.88637515156172
H           -0.25252139931253        0.91972859142625        2.71562208465526
H           -0.60406185157669        1.62390421806095       -0.76755764683067
H           -0.28488741053590        2.87682580796739        1.36719734300529
H            1.31731144365629        2.13919045770408        1.54381178749257
H            0.98158797539345        3.20040151022814        0.17988528513004
H            0.79345402939994        1.59740320030404       -2.62154294347413
H            2.75057187094986        0.70184863651965       -3.80703688031457
H            4.36786039412275       -0.73446385699612       -2.61785281746788
H            4.01147340889754       -1.26498928559566       -0.23369496007883
H            2.04684863485734       -0.37113921091436        0.94903360595595

 Bond Distances (Angstroems)
 ---------------------------
C1-C2=1.5220         C1-H17=1.0867        C1-H18=1.0887        C1-H19=1.0884        C2-C1=1.5220         C2-C3=1.5633         
C2-H20=1.0926        C2-H21=1.0914        C3-C2=1.5633         C3-C4=1.4949         C3-C8=1.5014         C3-H22=1.0976        
C4-C3=1.4949         C4-C5=1.3539         C4-H23=1.0796        C5-C4=1.3539         C5-C6=1.4047         C5-H24=1.0810        
C6-C5=1.4047         C6-C7=1.4004         C6-H25=1.0785        C7-C6=1.4004         C7-C8=1.3643         C7-H26=1.0799        
C8-C3=1.5014         C8-C7=1.3643         C8-C9=1.5045         C9-C8=1.5045         C9-C10=1.5309        C9-C11=1.5166        
C9-H27=1.0947        C10-C9=1.5309        C10-H28=1.0878       C10-H29=1.0871       C10-H30=1.0884       C11-C9=1.5166        
C11-C12=1.3880       C11-C16=1.3893       C12-C11=1.3880       C12-C13=1.3841       C12-H31=1.0817       C13-C12=1.3841       
C13-C14=1.3838       C13-H32=1.0805       C14-C13=1.3838       C14-C15=1.3849       C14-H33=1.0801       C15-C14=1.3849       
C15-C16=1.3828       C15-H34=1.0804       C16-C11=1.3893       C16-C15=1.3828       C16-H35=1.0805       H17-C1=1.0867        
H18-C1=1.0887        H19-C1=1.0884        H20-C2=1.0926        H21-C2=1.0914        H22-C3=1.0976        H23-C4=1.0796        
H24-C5=1.0810        H25-C6=1.0785        H26-C7=1.0799        H27-C9=1.0947        H28-C10=1.0878       H29-C10=1.0871       
H30-C10=1.0884       H31-C12=1.0817       H32-C13=1.0805       H33-C14=1.0801       H34-C15=1.0804       H35-C16=1.0805       
 C  H  Rav=1.0856 sigma=0.0057  Rmin=1.0785  Rmax=1.0976    19
 C  C  Rav=1.4394 sigma=0.0690  Rmin=1.3539  Rmax=1.5633    17

 selected bond angles (degree)
 --------------------
H17-C1-C2=111.39               H18-C1-C2=109.60               H18-C1-H17=107.71              H19-C1-C2=110.81               
H19-C1-H17=109.11              H19-C1-H18=108.13              C3-C2-C1=115.21                H20-C2-C1=108.74               
H20-C2-C3=106.92               H21-C2-C1=109.89               H21-C2-C3=108.05               H21-C2-H20=107.76              
C4-C3-C2=105.59                C8-C3-C2=112.07                C8-C3-C4=111.78                H22-C3-C2=106.85               
H22-C3-C4=110.40               H22-C3-C8=109.96               C5-C4-C3=121.44                H23-C4-C3=117.01               
H23-C4-C5=121.26               C6-C5-C4=120.55                H24-C5-C4=120.33               H24-C5-C6=119.08               
C7-C6-C5=119.39                H25-C6-C5=120.24               H25-C6-C7=120.01               C8-C7-C6=121.97                
H26-C7-C6=117.70               H26-C7-C8=120.24               C7-C8-C3=119.44                C9-C8-C3=116.57                
C9-C8-C7=123.87                C10-C9-C8=114.74               C11-C9-C8=108.78               C11-C9-C10=108.97              
H27-C9-C8=109.14               H27-C9-C10=107.68              H27-C9-C11=107.28              H28-C10-C9=110.73              
H29-C10-C9=110.93              H29-C10-H28=109.19             H30-C10-C9=109.40              H30-C10-H28=108.48             
H30-C10-H29=108.04             

 selected dihedral angles (degree)
 ---------------------------------
C3-C2-C1-H17=286.97           C3-C2-C1-H18=167.89           C3-C2-C1-H19= 48.64           H20-C2-C1-H17=167.01          
H20-C2-C1-H18= 47.93          H20-C2-C1-H19=288.68          H21-C2-C1-H17= 49.28          H21-C2-C1-H18=290.19          
H21-C2-C1-H19=170.94          C4-C3-C2-C1=190.56            C4-C3-C2-H20=311.51           C4-C3-C2-H21= 67.26           
C8-C3-C2-C1= 68.64            C8-C3-C2-H20=189.59           C8-C3-C2-H21=305.34           H22-C3-C2-C1=308.12           
H22-C3-C2-H20= 69.07          H22-C3-C2-H21=184.82          C5-C4-C3-C2=261.82            C5-C4-C3-C8= 23.93            
C5-C4-C3-H22=146.68           H23-C4-C3-C2= 75.76           H23-C4-C3-C8=197.88           H23-C4-C3-H22=320.62          
C6-C5-C4-C3=351.91            C6-C5-C4-H23=178.22           H24-C5-C4-C3=174.36           H24-C5-C4-H23=  0.67          
C7-C6-C5-C4=350.81            C7-C6-C5-H24=168.39           H25-C6-C5-C4=177.67           H25-C6-C5-H24=355.25          
C8-C7-C6-C5=  8.30            C8-C7-C6-H25=181.46           H26-C7-C6-C5=191.91           H26-C7-C6-H25=  5.07          
C7-C8-C3-C2= 93.93            C7-C8-C3-C4=335.62            C7-C8-C3-H22=212.62           C9-C8-C3-C2=270.16            
C9-C8-C3-C4=151.84            C9-C8-C3-H22= 28.85           C3-C8-C7-C6=  9.65            C3-C8-C7-H26=185.95           
C9-C8-C7-C6=193.71            C9-C8-C7-H26= 10.02           C10-C9-C8-C3=174.10           C10-C9-C8-C7=350.15           
C11-C9-C8-C3=296.42           C11-C9-C8-C7=112.47           H27-C9-C8-C3= 53.18           H27-C9-C8-C7=229.22           
H28-C10-C9-C8=301.70          H28-C10-C9-C11=179.48         H28-C10-C9-H27= 63.43         H29-C10-C9-C8= 63.10          
H29-C10-C9-C11=300.88         H29-C10-C9-H27=184.82         H30-C10-C9-C8=182.19          H30-C10-C9-C11= 59.96         
H30-C10-C9-H27=303.91         
           -------------------------------------------------
          |                Final Singlepoint                |
           -------------------------------------------------

          ...................................................
          :                      SETUP                      :
          :.................................................:
          :  # basis functions                  83          :
          :  # atomic orbitals                  83          :
          :  # shells                           51          :
          :  # electrons                        83          :
          :  max. iterations                   250          :
          :  Hamiltonian                  GFN2-xTB          :
          :  restarted?                      false          :
          :  GBSA solvation                  false          :
          :  PC potential                    false          :
          :  electronic temp.          300.0000000     K    :
          :  accuracy                    1.0000000          :
          :  -> integral cutoff          0.2500000E+02      :
          :  -> integral neglect         0.1000000E-07      :
          :  -> SCF convergence          0.1000000E-05 Eh   :
          :  -> wf. convergence          0.1000000E-03 e    :
          :  Broyden damping             0.4000000          :
          :  net charge                          0          :
          :  unpaired electrons                  0          :
          ...................................................

 iter      E             dE          RMSdq      gap      omega  full diag
   1    -44.6628313 -0.446628E+02  0.587E-05    2.18       0.0  T
   2    -44.6628313 -0.113118E-10  0.370E-05    2.18     457.0  T
   3    -44.6628313 -0.508749E-11  0.254E-05    2.18     665.3  T

   *** convergence criteria satisfied after 3 iterations ***

         #    Occupation            Energy/Eh            Energy/eV
      -------------------------------------------------------------
         1        2.0000           -0.6429201             -17.4947
       ...           ...                  ...                  ...
        36        2.0000           -0.4187983             -11.3961
        37        2.0000           -0.4091007             -11.1322
        38        2.0000           -0.4074455             -11.0872
        39        2.0000           -0.4003855             -10.8950
        40        2.0000           -0.3918130             -10.6618
        41        2.0000           -0.3853218             -10.4851
        42        1.0000           -0.2998100              -8.1582 (HOMO)
        43                         -0.2195562              -5.9744 (LUMO)
        44                         -0.2188402              -5.9549
        45                         -0.2010607              -5.4711
        46                         -0.1238693              -3.3707
        47                         -0.0896127              -2.4385
       ...                                ...                  ...
        83                          0.6674705              18.1628
      -------------------------------------------------------------
                  HL-Gap            0.0802538 Eh            2.1838 eV
             Fermi-level           -0.3011245 Eh           -8.1940 eV

 SCC (total)                   0 d,  0 h,  0 min,  0.007 sec
 SCC setup                      ...        0 min,  0.000 sec (  0.752%)
 Dispersion                     ...        0 min,  0.000 sec (  1.269%)
 classical contributions        ...        0 min,  0.000 sec (  0.310%)
 integral evaluation            ...        0 min,  0.001 sec ( 14.275%)
 iterations                     ...        0 min,  0.003 sec ( 37.263%)
 molecular gradient             ...        0 min,  0.003 sec ( 42.519%)
 printout                       ...        0 min,  0.000 sec (  3.495%)

         :::::::::::::::::::::::::::::::::::::::::::::::::::::
         ::                     SUMMARY                     ::
         :::::::::::::::::::::::::::::::::::::::::::::::::::::
         :: total energy             -43.877646507765 Eh    ::
         :: gradient norm              0.000282514854 Eh/a0 ::
         :: HOMO-LUMO gap              2.183817133734 eV    ::
         ::.................................................::
         :: SCC energy               -44.662116812115 Eh    ::
         :: -> isotropic ES            0.004388810233 Eh    ::
         :: -> anisotropic ES          0.008546643470 Eh    ::
         :: -> anisotropic XC          0.028658689428 Eh    ::
         :: -> dispersion             -0.036119729910 Eh    ::
         :: repulsion energy           0.784470304350 Eh    ::
         :: add. restraining           0.000000000000 Eh    ::
         :: total charge              -0.000000000000 e     ::
         :::::::::::::::::::::::::::::::::::::::::::::::::::::

           -------------------------------------------------
          |                Property Printout                |
           -------------------------------------------------

    * Orbital Energies and Occupations

         #    Occupation            Energy/Eh            Energy/eV
      -------------------------------------------------------------
         1        2.0000           -0.6429201             -17.4947
       ...           ...                  ...                  ...
        30        2.0000           -0.4528039             -12.3214
        31        2.0000           -0.4473503             -12.1730
        32        2.0000           -0.4400611             -11.9747
        33        2.0000           -0.4352759             -11.8445
        34        2.0000           -0.4287758             -11.6676
        35        2.0000           -0.4222902             -11.4911
        36        2.0000           -0.4187983             -11.3961
        37        2.0000           -0.4091007             -11.1322
        38        2.0000           -0.4074455             -11.0872
        39        2.0000           -0.4003855             -10.8950
        40        2.0000           -0.3918130             -10.6618
        41        2.0000           -0.3853218             -10.4851
        42        1.0000           -0.2998100              -8.1582 (HOMO)
        43                         -0.2195562              -5.9744 (LUMO)
        44                         -0.2188402              -5.9549
        45                         -0.2010607              -5.4711
        46                         -0.1238693              -3.3707
        47                         -0.0896127              -2.4385
        48                          0.0644710               1.7543
        49                          0.0905333               2.4635
        50                          0.0989539               2.6927
        51                          0.1064996               2.8980
        52                          0.1173522               3.1933
        53                          0.1269368               3.4541
       ...                                ...                  ...
        83                          0.6674705              18.1628
      -------------------------------------------------------------
                  HL-Gap            0.0802538 Eh            2.1838 eV
             Fermi-level           -0.3011245 Eh           -8.1940 eV

     #   Z          covCN         q      C6AA      α(0)
     1   6 C        3.750    -0.099    22.460     6.759
     2   6 C        3.807    -0.048    21.435     6.591
     3   6 C        3.861    -0.016    20.827     6.490
     4   6 C        2.916    -0.045    29.107     8.847
     5   6 C        2.903    -0.035    28.869     8.810
     6   6 C        2.917    -0.045    29.120     8.849
     7   6 C        2.907    -0.042    29.050     8.838
     8   6 C        2.964     0.000    28.024     8.683
     9   6 C        3.860    -0.024    20.967     6.512
    10   6 C        3.756    -0.099    22.451     6.756
    11   6 C        2.979     0.014    27.699     8.633
    12   6 C        2.924    -0.039    28.963     8.826
    13   6 C        2.919    -0.031    28.782     8.798
    14   6 C        2.920    -0.033    28.827     8.805
    15   6 C        2.919    -0.030    28.757     8.794
    16   6 C        2.924    -0.034    28.851     8.809
    17   1 H        0.925     0.036     2.503     2.474
    18   1 H        0.925     0.036     2.503     2.474
    19   1 H        0.925     0.036     2.505     2.475
    20   1 H        0.924     0.034     2.527     2.486
    21   1 H        0.924     0.036     2.509     2.477
    22   1 H        0.924     0.037     2.485     2.465
    23   1 H        0.926     0.021     2.715     2.576
    24   1 H        0.926     0.023     2.682     2.561
    25   1 H        0.926     0.021     2.719     2.579
    26   1 H        0.926     0.029     2.596     2.520
    27   1 H        0.924     0.047     2.358     2.402
    28   1 H        0.925     0.038     2.479     2.462
    29   1 H        0.925     0.039     2.462     2.454
    30   1 H        0.925     0.034     2.529     2.487
    31   1 H        0.925     0.025     2.653     2.547
    32   1 H        0.926     0.028     2.621     2.532
    33   1 H        0.926     0.028     2.620     2.531
    34   1 H        0.926     0.028     2.610     2.526
    35   1 H        0.926     0.032     2.559     2.502

 Mol. C6AA /au·bohr⁶  :      12651.237871
 Mol. C8AA /au·bohr⁸  :     299394.578820
 Mol. α(0) /au        :        177.327410


Wiberg/Mayer (AO) data.
largest (>0.10) Wiberg bond orders for each atom

 ---------------------------------------------------------------------------
     #   Z sym  total        # sym  WBO       # sym  WBO       # sym  WBO
 ---------------------------------------------------------------------------
     1   6 C    3.997 --     2 C    1.019    19 H    0.986    17 H    0.984
                            18 H    0.983
     2   6 C    3.989 --     1 C    1.019    21 H    0.980    20 H    0.976
                             3 C    0.921
     3   6 C    3.995 --     4 C    1.028     8 C    1.022    22 H    0.948
                             2 C    0.921
     4   6 C    3.921 --     5 C    1.637     3 C    1.028    23 H    0.971
     5   6 C    3.992 --     4 C    1.637     6 C    1.301    24 H    0.967
     6   6 C    3.873 --     7 C    1.335     5 C    1.301    25 H    0.974
     7   6 C    3.991 --     8 C    1.569     6 C    1.335    26 H    0.962
     8   6 C    3.913 --     7 C    1.569     3 C    1.022     9 C    1.008
     9   6 C    3.994 --     8 C    1.008    10 C    0.993    11 C    0.973
                            27 H    0.944
    10   6 C    3.996 --     9 C    0.993    30 H    0.987    29 H    0.985
                            28 H    0.984
    11   6 C    3.987 --    12 C    1.416    16 C    1.409     9 C    0.973
                            14 C    0.110
    12   6 C    3.991 --    13 C    1.441    11 C    1.416    31 H    0.969
                            15 C    0.110
    13   6 C    3.991 --    14 C    1.441    12 C    1.441    32 H    0.971
                            16 C    0.112
    14   6 C    3.991 --    13 C    1.441    15 C    1.435    33 H    0.972
                            11 C    0.110
    15   6 C    3.992 --    16 C    1.449    14 C    1.435    34 H    0.971
                            12 C    0.110
    16   6 C    3.992 --    15 C    1.449    11 C    1.409    35 H    0.968
                            13 C    0.112
    17   1 H    0.999 --     1 C    0.984
    18   1 H    0.997 --     1 C    0.983
    19   1 H    0.999 --     1 C    0.986
    20   1 H    0.999 --     2 C    0.976
    21   1 H    0.999 --     2 C    0.980
    22   1 H    0.998 --     3 C    0.948
    23   1 H    0.999 --     4 C    0.971
    24   1 H    0.999 --     5 C    0.967
    25   1 H    0.999 --     6 C    0.974
    26   1 H    0.999 --     7 C    0.962
    27   1 H    0.997 --     9 C    0.944
    28   1 H    0.998 --    10 C    0.984
    29   1 H    0.998 --    10 C    0.985
    30   1 H    0.998 --    10 C    0.987
    31   1 H    0.999 --    12 C    0.969
    32   1 H    0.999 --    13 C    0.971
    33   1 H    0.999 --    14 C    0.972
    34   1 H    0.999 --    15 C    0.971
    35   1 H    0.999 --    16 C    0.968
 ---------------------------------------------------------------------------

Topologies differ in total number of bonds
Writing topology from bond orders to xtbtopo.mol

molecular dipole:
                 x           y           z       tot (Debye)
 q only:       -0.151       0.274      -0.245
   full:       -0.131       0.240      -0.283       1.001
molecular quadrupole (traceless):
                xx          xy          yy          xz          yz          zz
 q only:        0.368      -0.788       0.126       1.694       0.816      -0.494
  q+dip:       -2.111      -2.200      -1.292       0.956      -0.170       3.403
   full:       -0.409      -1.156      -0.344       1.560       0.537       0.753

           -------------------------------------------------
          |                Geometry Summary                 |
           -------------------------------------------------

      molecular mass/u    :      211.3226486
   center of mass at/Å    :        0.2081591      -0.1044041      -0.0769743
  moments of inertia/u·Å² :        0.6406680E+03   0.1305198E+04   0.1413489E+04
rotational constants/cm⁻¹ :        0.2631259E-01   0.1291577E-01   0.1192625E-01

 * 31 selected distances

     #   Z          #   Z                                           value/Å
     1   6 C        2   6 C                                       1.5220469
     4   6 C        5   6 C                                       1.3539348
     5   6 C        6   6 C                                       1.4047346
     6   6 C        7   6 C                                       1.4004110
     7   6 C        8   6 C                                       1.3643139
     9   6 C       10   6 C                                       1.5309005 (max)
    11   6 C       12   6 C                                       1.3880072
    12   6 C       13   6 C                                       1.3840968
    13   6 C       14   6 C                                       1.3837690
    14   6 C       15   6 C                                       1.3849294
    11   6 C       16   6 C                                       1.3892948
    15   6 C       16   6 C                                       1.3827986
     1   6 C       17   1 H                                       1.0867465
     1   6 C       18   1 H                                       1.0886765
     1   6 C       19   1 H                                       1.0884180
     2   6 C       20   1 H                                       1.0926206
     2   6 C       21   1 H                                       1.0914144
     3   6 C       22   1 H                                       1.0976277
     4   6 C       23   1 H                                       1.0796295
     5   6 C       24   1 H                                       1.0810486
     6   6 C       25   1 H                                       1.0784897 (min)
     7   6 C       26   1 H                                       1.0799324
     9   6 C       27   1 H                                       1.0947205
    10   6 C       28   1 H                                       1.0877512
    10   6 C       29   1 H                                       1.0871291
    10   6 C       30   1 H                                       1.0883882
    12   6 C       31   1 H                                       1.0816688
    13   6 C       32   1 H                                       1.0805422
    14   6 C       33   1 H                                       1.0801315
    15   6 C       34   1 H                                       1.0803736
    16   6 C       35   1 H                                       1.0805239

 * 2 distinct bonds (by element types)

   Z      Z             #   av. dist./Å        max./Å        min./Å
   1 H    6 C          19     1.0855702     1.0976277     1.0784897
   6 C    6 C          12     1.4074365     1.5309005     1.3539348


optimized geometry written to: xtbopt.xyz


           -------------------------------------------------
          | TOTAL ENERGY              -43.877646507765 Eh   |
          | GRADIENT NORM               0.000282514854 Eh/α |
          | HOMO-LUMO GAP               2.183817133734 eV   |
           -------------------------------------------------

------------------------------------------------------------------------
 * finished run on 2025/09/15 at 14:21:07.409     
------------------------------------------------------------------------
 total:
 * wall-time:     0 d,  0 h,  0 min,  0.281 sec
 *  cpu-time:     0 d,  0 h,  0 min,  1.106 sec
 * ratio c/w:     3.933 speedup
 SCF:
 * wall-time:     0 d,  0 h,  0 min,  0.026 sec
 *  cpu-time:     0 d,  0 h,  0 min,  0.101 sec
 * ratio c/w:     3.847 speedup
 ANC optimizer:
 * wall-time:     0 d,  0 h,  0 min,  0.236 sec
 *  cpu-time:     0 d,  0 h,  0 min,  0.944 sec
 * ratio c/w:     4.000 speedup

