35
 energy: -43.866289276167 gnorm: 0.067656412108 xtb: 6.7.1 (edcfbbe)
C           -2.72730000000000        0.39480000000000       -1.53220000000000
C           -2.64480000000000       -0.69870000000000       -0.47960000000000
C           -1.22610000000000       -1.02340000000000        0.04670000000000
C           -1.35370000000000       -2.31530000000000        0.85760000000000
C           -1.30240000000000       -2.34110000000000        2.19730000000000
C           -1.09730000000000       -1.09550000000000        2.88780000000000
C           -0.55430000000000        0.05910000000000        2.21320000000000
C           -0.56550000000000        0.11670000000000        0.86240000000000
C            0.14900000000000        1.22130000000000        0.07220000000000
C            0.62080000000000        2.43320000000000        0.89490000000000
C            1.32730000000000        0.68700000000000       -0.73810000000000
C            1.39580000000000        0.92520000000000       -2.12000000000000
C            2.47070000000000        0.44730000000000       -2.87180000000000
C            3.49100000000000       -0.27190000000000       -2.25320000000000
C            3.43860000000000       -0.51350000000000       -0.88230000000000
C            2.36530000000000       -0.03600000000000       -0.12830000000000
H           -2.62770000000000        1.38690000000000       -1.08480000000000
H           -3.70750000000000        0.36700000000000       -2.02040000000000
H           -1.96370000000000        0.26580000000000       -2.30480000000000
H           -3.07060000000000       -1.60720000000000       -0.92800000000000
H           -3.30760000000000       -0.43210000000000        0.35450000000000
H           -0.57570000000000       -1.26740000000000       -0.80230000000000
H           -1.51660000000000       -3.23670000000000        0.30580000000000
H           -1.41020000000000       -3.25810000000000        2.76460000000000
H           -1.18520000000000       -1.07640000000000        3.96860000000000
H           -0.08900000000000        0.81260000000000        2.83800000000000
H           -0.57970000000000        1.63230000000000       -0.63130000000000
H           -0.21350000000000        2.88270000000000        1.44480000000000
H            1.40440000000000        2.16870000000000        1.61400000000000
H            1.03470000000000        3.20810000000000        0.23850000000000
H            0.61050000000000        1.48590000000000       -2.62180000000000
H            2.51180000000000        0.63690000000000       -3.94120000000000
H            4.32690000000000       -0.64440000000000       -2.83910000000000
H            4.23260000000000       -1.07570000000000       -0.39800000000000
H            2.33910000000000       -0.23800000000000        0.94040000000000
35
 energy: -43.874482088180 gnorm: 0.031039362555 xtb: 6.7.1 (edcfbbe)
C           -2.72423703277582        0.40325287986402       -1.53105445745598
C           -2.63075732544388       -0.69096643123919       -0.47559902328085
C           -1.20619012655086       -1.01524571065784        0.04131228654903
C           -1.32773828286498       -2.28698443079605        0.84717833234347
C           -1.30644744632801       -2.30015789436094        2.19516883438442
C           -1.05511843539589       -1.09557679815734        2.89509208292255
C           -0.54894959526784        0.03333588123225        2.20350261291806
C           -0.54421381400108        0.09536097048436        0.84818070287928
C            0.13993697108001        1.20656963371982        0.06252530424234
C            0.61241190370654        2.40366165198946        0.90229642943445
C            1.31352911765518        0.66918507485003       -0.74122990665674
C            1.39219763207747        0.91263351877781       -2.11030537115405
C            2.46490353837343        0.44775734921243       -2.85623419872289
C            3.47966704924650       -0.26687172052172       -2.24212114095797
C            3.42016599069969       -0.50571215748269       -0.87842103878627
C            2.34648245799872       -0.04010138713209       -0.13358225419906
H           -2.61537173326872        1.39312681180903       -1.09148984196013
H           -3.70223026834041        0.36781324861087       -2.01348669788566
H           -1.96535263424860        0.26869703412020       -2.30080889528771
H           -3.03624206849698       -1.61325725406216       -0.90823120935287
H           -3.27106415987618       -0.43220569889906        0.37372616039152
H           -0.57401864657291       -1.23046608857998       -0.82975252903530
H           -1.50140392166725       -3.19868715076972        0.28909265648292
H           -1.44433239392482       -3.21281533838249        2.75903777237736
H           -1.14637219631214       -1.07134061711911        3.97131934816495
H           -0.13964366848335        0.82419642315118        2.81833364441154
H           -0.58501995191041        1.60507199458982       -0.65367164503761
H           -0.21871007358474        2.85033782322160        1.44902618708333
H            1.39497821371079        2.13388923880763        1.61116388164827
H            1.02275299915424        3.16724646913355        0.23848611034291
H            0.61076148221673        1.47476885566635       -2.60614819936040
H            2.50654033276995        0.63953036180010       -3.92072610642971
H            4.31371083511187       -0.63667131833151       -2.82462590782669
H            4.21203291510250       -1.06185290822020       -0.39384923829174
H            2.31344233641125       -0.23742231632843        0.92999531510527
35
 energy: -43.876706597693 gnorm: 0.008198222439 xtb: 6.7.1 (edcfbbe)
C           -2.71849954115095        0.40594587055546       -1.52687840561844
C           -2.61142938004653       -0.68473086362889       -0.46740532431120
C           -1.17356730507123       -1.01171822675804        0.03376336226382
C           -1.29926417029800       -2.27061294330715        0.83147744741367
C           -1.30021092339769       -2.26945985365767        2.18536545493998
C           -1.02702039276159       -1.08998942532065        2.89282859303807
C           -0.56631061889526        0.03376576803918        2.19590674310635
C           -0.54356400709147        0.09360173695116        0.83530324400762
C            0.12946607770201        1.19895725248348        0.05813502516717
C            0.60614105887930        2.38446413001560        0.90396922783493
C            1.30004108724778        0.66024814020189       -0.74112848088901
C            1.38356949324017        0.90394128978602       -2.10485343679149
C            2.45620325213647        0.44387959671985       -2.84612981967246
C            3.46907013755177       -0.26695065914428       -2.22986203484212
C            3.40075307894310       -0.50769343685957       -0.86885947587942
C            2.32488730320260       -0.04842115138049       -0.13090576361877
H           -2.60413742451149        1.39511477739636       -1.09280262263173
H           -3.69917404452278        0.36417960515456       -1.99749988099978
H           -1.96681832714287        0.26601737183235       -2.30044745978379
H           -3.00953941633135       -1.61204346765045       -0.88936156008688
H           -3.23152452916740       -0.42588868289734        0.39405099928213
H           -0.56284397120119       -1.20183098389160       -0.86217023996411
H           -1.48812918439701       -3.17691105783810        0.27419787359175
H           -1.47745550946305       -3.18046172827118        2.74240569132732
H           -1.09139099297542       -1.07264622069082        3.96875021043954
H           -0.17067404145535        0.84379024273883        2.79243019743021
H           -0.59082476403619        1.59186295367730       -0.66544145094189
H           -0.22378076495238        2.82195956964231        1.45338281073026
H            1.38248258710581        2.09089008194875        1.60480629987160
H            1.02020706947206        3.14520024639363        0.24382796548833
H            0.60165898240717        1.46462465544851       -2.59766618334577
H            2.50235341401343        0.64283044695800       -3.90693428852799
H            4.30700019627250       -0.62922349393840       -2.80702458754073
H            4.19297252102655       -1.05590908481879       -0.38074712198930
H            2.27945304966854       -0.24668245588990        0.92961699150228
35
 energy: -43.877038206654 gnorm: 0.005239019563 xtb: 6.7.1 (edcfbbe)
C           -2.71681058180499        0.40469350595934       -1.52495988894732
C           -2.60470710696777       -0.68379807263826       -0.46443588258507
C           -1.15882288583534       -1.01112842917403        0.02817579823165
C           -1.28821877888368       -2.26982942999787        0.82287882764702
C           -1.29756038438926       -2.26457336739741        2.17758783640507
C           -1.01305936470490       -1.08888211327871        2.88804538662658
C           -0.56432527517337        0.03956411345474        2.19182002117386
C           -0.53808501882266        0.09582355949814        0.82977674371924
C            0.12327826753333        1.20383958967164        0.05437163741946
C            0.60502341093056        2.38190990109141        0.90560181936501
C            1.29109626537194        0.65963481090013       -0.74343904909932
C            1.37789455153919        0.90201545296544       -2.10746166394019
C            2.45486288866416        0.44230436916628       -2.84346497787435
C            3.46601048264477       -0.26747032081243       -2.22080220535096
C            3.39012002040289       -0.51195747084226       -0.85995790256372
C            2.30991026321853       -0.05419791402296       -0.12716685310087
H           -2.59812180344186        1.39523777102034       -1.09456363778481
H           -3.70161725394718        0.36243439790919       -1.98671219166226
H           -1.97131976549685        0.26119887965572       -2.30445675297801
H           -3.00792324953458       -1.61110370985730       -0.87935952631960
H           -3.21155952040458       -0.41960660461775        0.40432218303928
H           -0.55626406151166       -1.19349389978002       -0.87468770403857
H           -1.47799973025945       -3.17613387717352        0.26732367409387
H           -1.48451664444286       -3.17678211231366        2.72842968179215
H           -1.05955204477540       -1.07711235828153        3.96545752580880
H           -0.19037450308897        0.86827945145800        2.77982508811644
H           -0.59725021272281        1.59775444770467       -0.66835970609888
H           -0.22293572647497        2.81654704388144        1.46019896244606
H            1.37966360107838        2.07374642501325        1.60270652558554
H            1.02285748680956        3.14568406815739        0.25245241725271
H            0.59557660570014        1.46147867677892       -2.60185082043753
H            2.50451092752993        0.64050903689691       -3.90428384984321
H            4.30755248417013       -0.62819573281971       -2.79343520822866
H            4.17901835992151       -1.06198318324195       -0.36817788151763
H            2.25374829716822       -0.25630690493375        0.93270157364848
35
 energy: -43.877174667662 gnorm: 0.002379343286 xtb: 6.7.1 (edcfbbe)
C           -2.71911096555601        0.40181343879126       -1.52482156159097
C           -2.60118647338396       -0.68234151774351       -0.46149940895702
C           -1.14893838654620       -1.01034212703925        0.02210981037553
C           -1.27506983704351       -2.27107500302820        0.81497442717735
C           -1.28547163234590       -2.26482089129305        2.16914456316182
C           -1.00500812168799       -1.08896501644201        2.88147893663064
C           -0.56851836969402        0.04712793751889        2.18849100230532
C           -0.53942633969480        0.10178340895842        0.82573319579779
C            0.11792120169759        1.21186670884540        0.05192799133339
C            0.60655696421119        2.38389978542410        0.90696468980556
C            1.28349739032882        0.66314467016139       -0.74618649131394
C            1.37501056817189        0.90314003361133       -2.11081750233675
C            2.45534311070468        0.43946148649684       -2.84071467398776
C            3.46241539678201       -0.27084997102001       -2.21070170488153
C            3.37752338762077       -0.51910095618834       -0.85047047414011
C            2.29418132109119       -0.05876136423669       -0.12367331551249
H           -2.59548880940529        1.39431472213800       -1.09946574251267
H           -3.70822135796846        0.36008452901550       -1.97803801377877
H           -1.98019594279785        0.25444116760044       -2.31042622650615
H           -3.01003621939855       -1.61037072854767       -0.86812026920115
H           -3.19643012048341       -0.41242001561856        0.41315627148853
H           -0.55058402252126       -1.18672063942757       -0.88317383990298
H           -1.46473711686079       -3.17788795114721        0.26062259608556
H           -1.47686607099680       -3.17802241235616        2.71522485125878
H           -1.03605227253907       -1.08416404032171        3.95997000387857
H           -0.20006215828664        0.87898681283418        2.77073218316797
H           -0.60210344256964        1.61052909485903       -0.66850296596684
H           -0.21848706691593        2.81964526280059        1.46571241668462
H            1.37987958756143        2.06499424970074        1.60143780752988
H            1.02865590336051        3.15033058466292        0.25998117545746
H            0.59390546906220        1.46210376804861       -2.60845405748462
H            2.51054325229126        0.63599674384294       -3.90183600940994
H            4.30874543225572       -0.62997822627995       -2.77764921028405
H            4.16130173117761       -1.07322556436588       -0.35438838212920
H            2.22661401037935       -0.26451798025509        0.93537792775854
35
 energy: -43.877244336538 gnorm: 0.002400629285 xtb: 6.7.1 (edcfbbe)
C           -2.72405508263955        0.39798134605312       -1.52563611730006
C           -2.60180265072500       -0.68129301739510       -0.45864155619600
C           -1.14585074508086       -1.00782995254131        0.01780466044224
C           -1.26534753482681       -2.27127945073018        0.80851202448578
C           -1.27404632441901       -2.26727874045676        2.16234497445946
C           -0.99992926839485       -1.09045165561519        2.87606451545738
C           -0.56891388698963        0.04979671752716        2.18605310381502
C           -0.54045456244490        0.10611678510381        0.82337519260288
C            0.11526790753278        1.21899148357912        0.05093053708196
C            0.60949052198391        2.38728894510830        0.90807314383166
C            1.27888653312786        0.66716046849600       -0.74831282396025
C            1.37531696666580        0.90596286473070       -2.11286618922631
C            2.45766284770945        0.43779481647983       -2.83776266584685
C            3.45976783812617       -0.27508307279648       -2.20269996929914
C            3.36741422321311       -0.52604546822399       -0.84336607794295
C            2.28262345494835       -0.06158462959681       -0.12160903583705
H           -2.59573073211712        1.39234038379975       -1.10558030050654
H           -3.71631258659838        0.35698881424221       -1.97242749262090
H           -1.99047598538228        0.24638333968521       -2.31560465344866
H           -3.01527406909321       -1.61041509251488       -0.85799302700478
H           -3.18964210532194       -0.40619145330900        0.41900818073295
H           -0.54948331908550       -1.17994075546218       -0.88834654466372
H           -1.44990540507434       -3.17854388882218        0.25316077250650
H           -1.45895846224074       -3.18256734997020        2.70562156566504
H           -1.02655290829379       -1.08916158976993        3.95437159950566
H           -0.20913617975312        0.88474094569417        2.76812365629866
H           -0.60501935758138        1.62248065282461       -0.66658923430914
H           -0.21284060451409        2.82589864785772        1.46912771059324
H            1.38230254866254        2.06354938258536        1.60091962035989
H            1.03438446223645        3.15439628602106        0.26354118524826
H            0.59728514995793        1.46670974728977       -2.61356904715421
H            2.51817867067318        0.63286354340243       -3.89903388253429
H            4.30881278726145       -0.63502516557757       -2.76531071899699
H            4.14567889918114       -1.08542074852736       -0.34414323188009
H            2.20675895929656       -0.26923313917157        0.93656012564192
35
 energy: -43.877324843676 gnorm: 0.002735459502 xtb: 6.7.1 (edcfbbe)
C           -2.73288203726878        0.39203535113925       -1.52758736046531
C           -2.60519708495875       -0.67942903310719       -0.45389149777688
C           -1.14575025257687       -1.00242462442029        0.01293647909485
C           -1.25227254575538       -2.26999280095077        0.79983990381605
C           -1.25635524355216       -2.27124074282682        2.15352090790509
C           -0.99384889462497       -1.09283136299802        2.86971588020540
C           -0.57111026718894        0.05276122246777        2.18304553688879
C           -0.54368833827043        0.11251595975615        0.82061127426012
C            0.11264394341592        1.22750615349380        0.04978851733893
C            0.61359756753675        2.39160355552030        0.90912616589858
C            1.27414539638317        0.67180715488233       -0.75018295094782
C            1.37807593257586        0.91092031916228       -2.11383062194787
C            2.46225009750382        0.43678567427559       -2.83273968948056
C            3.45678892821469       -0.28176850399578       -2.19278141188201
C            3.35532180699664       -0.53548813738497       -0.83472140024550
C            2.26946477135272       -0.06497092203214       -0.11913355722808
H           -2.59697900718572        1.38914164540645       -1.11616339388265
H           -3.72899943483221        0.35196882109746       -1.96602997466068
H           -2.00639876859404        0.23267646057085       -2.32258497610543
H           -3.02371122872093       -1.61093608497282       -0.84280009029097
H           -3.18512990130854       -0.39704083340759        0.42632616922883
H           -0.55220284849348       -1.16837915484132       -0.89542029245582
H           -1.42843406436738       -3.17739201140687        0.24155247361030
H           -1.42956253954007       -3.19018988538743        2.69447324458528
H           -1.02062068211567       -1.09481934196082        3.94752483035764
H           -0.21768060526182        0.88755595851606        2.76742211828637
H           -0.60787751498259        1.63653590669746       -0.66468006264738
H           -0.20540327149689        2.83496262905681        1.47166923063163
H            1.38557552558501        2.06374859459086        1.60074144278061
H            1.04195935670359        3.15773073488068        0.26534726952898
H            0.60564424040178        1.47588305576467       -2.61847952847449
H            2.53007120208155        0.63107174753224       -3.89380121806023
H            4.30777165149767       -0.64472116388577       -2.75061466286234
H            4.12629224689047       -1.10184461414494       -0.33197983378860
H            2.18460186395618       -0.27364172708793        0.93788107878587
35
 energy: -43.877404515454 gnorm: 0.002249797771 xtb: 6.7.1 (edcfbbe)
C           -2.74549528247038        0.38431672138475       -1.53025987993276
C           -2.61067520041024       -0.67682724736212       -0.44714163494877
C           -1.14733383985971       -0.99416651508324        0.00731167373513
C           -1.23604712162652       -2.26676753385113        0.78839953806587
C           -1.23421239508722       -2.27520796847901        2.14216426813093
C           -0.98665635471798       -1.09548305964831        2.86219589409971
C           -0.57411116641356        0.05583783050873        2.17919927443596
C           -0.54765692045169        0.12043421865977        0.81706737911892
C            0.11002791015869        1.23682420856835        0.04841462806809
C            0.61728291075134        2.39685702258015        0.90964637182510
C            1.27007952884706        0.67680801989341       -0.75048212133404
C            1.38363589938792        0.91816076632489       -2.11249342344932
C            2.46864335359365        0.43643915971606       -2.82533686924425
C            3.45314472102820       -0.29179501219201       -2.18137214597201
C            3.34164676127838       -0.54799068525072       -0.82466479614935
C            2.25575557328424       -0.06935847256062       -0.11535009178738
H           -2.59912350427280        1.38478947409387       -1.13061311146548
H           -3.74639267005991        0.34527811324459       -1.95776441940154
H           -2.02815256754673        0.21349570247944       -2.33119650722048
H           -3.03413265423629       -1.61168415103216       -0.82302650510608
H           -3.18242634202096       -0.38536559890685        0.43536284845421
H           -0.55840228589908       -1.15145267439401       -0.90564446431431
H           -1.40053049279684       -3.17385454026235        0.22555290644286
H           -1.38949470157639       -3.19925104122720        2.68084683904152
H           -1.01554278387973       -1.10098388673553        3.93982426482115
H           -0.22746927787707        0.89052590078506        2.76803005638603
H           -0.61002260831497        1.65029871037240       -0.66445999564482
H           -0.19862273660145        2.84516567661489        1.47268253222064
H            1.38739746650290        2.06419648250697        1.60081153508933
H            1.05024611455519        3.16084341469802        0.26603450408941
H            0.61908025661919        1.49002842906168       -2.62128527999756
H            2.54532168128797        0.63201848033665       -3.88554917866681
H            4.30452490554960       -0.66048172122864       -2.73473001882278
H            4.10415754471194       -1.12245758557224       -0.31844463028913
H            2.16165627856352       -0.27909063804421        0.94037055972296
35
 energy: -43.877460234818 gnorm: 0.001503878779 xtb: 6.7.1 (edcfbbe)
C           -2.75875891535141        0.37697600681891       -1.53236148150483
C           -2.61602779698338       -0.67453247052868       -0.44042761689528
C           -1.14874452053569       -0.98546216853783        0.00208764583094
C           -1.21958128949420       -2.26275703456998        0.77675903646601
C           -1.21275471684974       -2.27771908763699        2.13056679598386
C           -0.97933816823244       -1.09745672414105        2.85492298371552
C           -0.57764615236136        0.05957327949349        2.17547141325229
C           -0.55138134326928        0.12860976936430        0.81353682027962
C            0.10788929996806        1.24495237810097        0.04685102119519
C            0.61814174892281        2.40232244512708        0.90961769979227
C            1.26800206542173        0.68081147882365       -0.74873581099367
C            1.39103535633527        0.92604114305630       -2.10892075035713
C            2.47554490473665        0.43695759100709       -2.81738438759161
C            3.44980130744871       -0.30298007271061       -2.17125604469599
C            3.32964503597090       -0.56119668348200       -0.81565912755026
C            2.24476292273710       -0.07455495824722       -0.11079050928080
H           -2.60173589959125        1.38032507802826       -1.14437204489672
H           -3.76452727006611        0.33896989320928       -1.94817212162315
H           -2.05108946205171        0.19441782490650       -2.33934766705943
H           -3.04284989997982       -1.61263018078296       -0.80428966563495
H           -3.18087194995111       -0.37499969820710        0.44393435476840
H           -0.56525033381261       -1.13357430332303       -0.91636369974655
H           -1.37314674060793       -3.16905799653735        0.20943184211042
H           -1.35206331507392       -3.20628946461017        2.66703525734664
H           -1.01032276374122       -1.10645290550870        3.93266739610148
H           -0.23503028546337        0.89358882954783        2.76848356420032
H           -0.61052914877046        1.65991135412066       -0.66719910321438
H           -0.19629220587688        2.85397534726313        1.47169494026332
H            1.38551848613317        2.06533906922378        1.60161455584523
H            1.05582633434390        3.16411699874126        0.26658410097660
H            0.63460583212089        1.50614444602540       -2.62048352767706
H            2.55987412337591        0.63535088225076       -3.87639600278592
H            4.29954243639641       -0.67931828364214       -2.72179174362546
H            4.08426324019951       -1.14373583327633       -0.30710922622280
H            2.14358908395317       -0.28556594936734        0.94390110322912
35
 energy: -43.877503434967 gnorm: 0.001364025347 xtb: 6.7.1 (edcfbbe)
C           -2.77577421505833        0.36857473019149       -1.53324145896255
C           -2.62163154301191       -0.67272057937259       -0.43259312013387
C           -1.14898205505791       -0.97512124685322       -0.00445639111618
C           -1.19951240373034       -2.25747196854649        0.76222514122344
C           -1.18886536486568       -2.27899226574614        2.11595490702707
C           -0.97071928258582       -1.09901105117702        2.84572320990734
C           -0.58063700345157        0.06410884727195        2.17086078598440
C           -0.55447027141407        0.13829716062113        0.80910612875765
C            0.10615710439629        1.25407484831990        0.04469709976447
C            0.61478242698839        2.41070576651984        0.90878802070755
C            1.26876296949563        0.68572469659369       -0.74412385303367
C            1.40319971532726        0.93718118782544       -2.10200155412263
C            2.48499778142057        0.43814252162446       -2.80724537210902
C            3.44581719604644       -0.31895379973040       -2.16044089100769
C            3.31638829737798       -0.57943839576388       -0.80609502633856
C            2.23450741744811       -0.08197622093619       -0.10426614856614
H           -2.60525434463298        1.37447730807449       -1.15866683770573
H           -3.78814128527708        0.33254438164410       -1.93266809349298
H           -2.08179350650770        0.17236857696316       -2.34887658255276
H           -3.05058959050852       -1.61444793879599       -0.78350358033262
H           -3.17892741964125       -0.36551413407526        0.45411693929606
H           -0.57275620915324       -1.11173920375317       -0.92966407592299
H           -1.34028412657885       -3.16246398866955        0.18985774717895
H           -1.31132278829998       -3.21198238365901        2.64932909372417
H           -1.00287292534419       -1.11249834347548        3.92373836730092
H           -0.24225123348787        0.89806244220498        2.76823865216460
H           -0.60886786541214        1.66721702891132       -0.67414996181522
H           -0.20073682199924        2.86382313441303        1.46751846889022
H            1.37784209874133        2.07041854222948        1.60386884167864
H            1.05770486783587        3.17068471172612        0.26755026541773
H            0.65701329253998        1.52913904465362       -2.61496633068062
H            2.57751304952638        0.64181264714467       -3.86442936208907
H            4.29161577867239       -0.70637601233889       -2.70923846276245
H            4.06143534116393       -1.17283400526621       -0.29615823270926
H            2.12675291903851       -0.29571603877442        0.94931166643233
35
 energy: -43.877524654942 gnorm: 0.000873600432 xtb: 6.7.1 (edcfbbe)
C           -2.78340400641552        0.36599125248554       -1.53123501487465
C           -2.62247480051569       -0.67332219040865       -0.43005751008826
C           -1.14704324132100       -0.97173704847423       -0.00777003083791
C           -1.19100235675438       -2.25568365066752        0.75607215061815
C           -1.18085344379985       -2.27874841154422        2.10964822087647
C           -0.96706187866914       -1.09927876541762        2.84143945558028
C           -0.58052699173011        0.06624784767352        2.16865520062514
C           -0.55452600808543        0.14207999959070        0.80690495974790
C            0.10636739571016        1.25778413426065        0.04333277244700
C            0.60910454556364        2.41665590933050        0.90775144978392
C            1.27178740569208        0.68820360173309       -0.74093397694769
C            1.41131400184469        0.94323000211715       -2.09779829923743
C            2.49073847993862        0.43914056666026       -2.80284840662760
C            3.44460546446731       -0.32722527727460       -2.15670154476006
C            3.31140329675908       -0.58935052889839       -0.80307029559304
C            2.23188964578755       -0.08633111573837       -0.10110770029465
H           -2.60637483628313        1.37193622874571       -1.16074143269525
H           -3.79943996611369        0.33220291571887       -1.92117623716514
H           -2.09771354645032        0.16569937606407       -2.35254445442324
H           -3.05069425441934       -1.61632151768238       -0.77761140880303
H           -3.17652644337809       -0.36587961460777        0.45855881213262
H           -0.57381849648550       -1.10362056073052       -0.93501049796296
H           -1.32727385244396       -3.16007678560715        0.18217829293618
H           -1.30045378167380       -3.21255837531933        2.64123758143442