      -----------------------------------------------------------      
     |                   =====================                   |     
     |                           x T B                           |     
     |                   =====================                   |     
     |                         S. Grimme                         |     
     |          Mulliken Center for Theoretical Chemistry        |     
     |                    University of Bonn                     |     
      -----------------------------------------------------------      

   * xtb version 6.7.1 (edcfbbe) compiled by 'conda@c0858423619e' on 2025-09-04

   xtb is free software: you can redistribute it and/or modify it under
   the terms of the GNU Lesser General Public License as published by
   the Free Software Foundation, either version 3 of the License, or
   (at your option) any later version.
   
   xtb is distributed in the hope that it will be useful,
   but WITHOUT ANY WARRANTY; without even the implied warranty of
   MERCHANTABILITY or FITNESS FOR A PARTICULAR PURPOSE.  See the
   GNU Lesser General Public License for more details.
   
   Cite this work as:
   * C. Bannwarth, E. Caldeweyher, S. Ehlert, A. Hansen, P. Pracht,
     J. Seibert, S. Spicher, S. Grimme, WIREs Comput. Mol. Sci., 2020, 11,
     e01493. DOI: 10.1002/wcms.1493
   
   for GFN2-xTB:
   * C. Bannwarth, S. Ehlert and S. Grimme., J. Chem. Theory Comput., 2019,
     15, 1652-1671. DOI: 10.1021/acs.jctc.8b01176
   for GFN1-xTB:
   * S. Grimme, C. Bannwarth, P. Shushkov, J. Chem. Theory Comput., 2017,
     13, 1989-2009. DOI: 10.1021/acs.jctc.7b00118
   for GFN0-xTB:
   * P. Pracht, E. Caldeweyher, S. Ehlert, S. Grimme, ChemRxiv, 2019, preprint.
     DOI: 10.26434/chemrxiv.8326202.v1
   for GFN-FF:
   * S. Spicher and S. Grimme, Angew. Chem. Int. Ed., 2020, 59, 15665-15673.
     DOI: 10.1002/anie.202004239
   
   for ALPB and GBSA implicit solvation:
   * S. Ehlert, M. Stahn, S. Spicher, S. Grimme, J. Chem. Theory Comput.,
     2021, 17, 4250-4261. DOI: 10.1021/acs.jctc.1c00471
   
   for ddCOSMO and CPCM-X implicit solvation:
   * M. Stahn, S. Ehlert, S. Grimme, J. Phys. Chem. A,
     2023, XX, XXXX-XXXX. DOI: 10.1021/acs.jpca.3c04382
   
   for DFT-D4:
   * E. Caldeweyher, C. Bannwarth and S. Grimme, J. Chem. Phys., 2017,
     147, 034112. DOI: 10.1063/1.4993215
   * E. Caldeweyher, S. Ehlert, A. Hansen, H. Neugebauer, S. Spicher,
     C. Bannwarth and S. Grimme, J. Chem. Phys., 2019, 150, 154122.
     DOI: 10.1063/1.5090222
   * E. Caldeweyher, J.-M. Mewes, S. Ehlert and S. Grimme, Phys. Chem. Chem. Phys.
     2020, 22, 8499-8512. DOI: 10.1039/D0CP00502A
   
   for sTDA-xTB:
   * S. Grimme and C. Bannwarth, J. Chem. Phys., 2016, 145, 054103.
     DOI: 10.1063/1.4959605
   
   in the mass-spec context:
   * V. Asgeirsson, C. Bauer and S. Grimme, Chem. Sci., 2017, 8, 4879.
     DOI: 10.1039/c7sc00601b
   * J. Koopman and S. Grimme, ACS Omega 2019, 4, 12, 15120-15133.
     DOI: 10.1021/acsomega.9b02011
   
   for metadynamics refer to:
   * S. Grimme, J. Chem. Theory Comput., 2019, 155, 2847-2862
     DOI: 10.1021/acs.jctc.9b00143
   
   for SPH calculations refer to:
   * S. Spicher and S. Grimme, J. Chem. Theory Comput., 2021, 17, 1701-1714
     DOI: 10.1021/acs.jctc.0c01306
   
   for ONIOM refer to:
   * C. Plett, A. Katbashev, S. Ehlert, S. Grimme, M. Bursch,
     Phys. Chem. Chem. Phys., 2023, 25, 17860-17868. DOI: 10.1039/D3CP02178E
   
   for DIPRO refer to:
   * J. Kohn, N. Gildemeister, S. Grimme, D. Fazzi, A. Hansen,
     J. Chem. Phys., 2023, just accepted.
   
   for PTB refer to:
   * S. Grimme, M. Mueller, A. Hansen, J. Chem. Phys., 2023, 158, 124111.
     DOI: 10.1063/5.0137838
   
   with help from (in alphabetical order)
   P. Atkinson, C. Bannwarth, F. Bohle, G. Brandenburg, E. Caldeweyher
   M. Checinski, S. Dohm, S. Ehlert, S. Ehrlich, I. Gerasimov, C. Hölzer
   A. Katbashev, J. Kohn, J. Koopman, C. Lavigne, S. Lehtola, F. März, M. Müller,
   F. Musil, H. Neugebauer, J. Pisarek, C. Plett, P. Pracht, F. Pultar,
   J. Seibert, P. Shushkov, S. Spicher, M. Stahn, M. Steiner, T. Strunk,
   J. Stückrath, T. Rose, and J. Unsleber
   
 * started run on 2025/09/15 at 14:21:07.630     
   ID    Z sym.   atoms
    1    6 C      1-16
    2    1 H      17-35

           -------------------------------------------------
          |                Calculation Setup                |
           -------------------------------------------------

          program call               : /home/paufv/miniforge3/envs/htvs/bin/xtb gfn_opt.xyz --opt normal --parallel 4 --chrg 0 --uhf 0 --gfn2 --input xtb.inp
          coordinate file            : gfn_opt.xyz
          omp threads                :                     4

########################################################################
[WARNING] Please study the warnings concerning your input carefully
-3- set_opt: the key 'uhf' is not recognized by opt
-2- set_opt: the key 'charge' is not recognized by opt
-1- set_opt: the key 'method' is not recognized by opt
########################################################################

           -------------------------------------------------
          |                 G F N 2 - x T B                 |
           -------------------------------------------------

        Reference                      10.1021/acs.jctc.8b01176
      * Hamiltonian:
        H0-scaling (s, p, d)           1.850000    2.230000    2.230000
        zeta-weighting                 0.500000
      * Dispersion:
        s8                             2.700000
        a1                             0.520000
        a2                             5.000000
        s9                             5.000000
      * Repulsion:
        kExp                           1.500000    1.000000
        rExp                           1.000000
      * Coulomb:
        alpha                          2.000000
        third order                    shell-resolved
        anisotropic                    true
        a3                             3.000000
        a5                             4.000000
        cn-shift                       1.200000
        cn-exp                         4.000000
        max-rad                        5.000000

q/qsh data taken from xtbrestart
CAMM data taken from xtbrestart

          ...................................................
          :                      SETUP                      :
          :.................................................:
          :  # basis functions                  83          :
          :  # atomic orbitals                  83          :
          :  # shells                           51          :
          :  # electrons                        83          :
          :  max. iterations                   250          :
          :  Hamiltonian                  GFN2-xTB          :
          :  restarted?                       true          :
          :  GBSA solvation                  false          :
          :  PC potential                    false          :
          :  electronic temp.          300.0000000     K    :
          :  accuracy                    1.0000000          :
          :  -> integral cutoff          0.2500000E+02      :
          :  -> integral neglect         0.1000000E-07      :
          :  -> SCF convergence          0.1000000E-05 Eh   :
          :  -> wf. convergence          0.1000000E-03 e    :
          :  Broyden damping             0.4000000          :
          :  net charge                          0          :
          :  unpaired electrons                  0          :
          ...................................................

 iter      E             dE          RMSdq      gap      omega  full diag
   1    -44.5945390 -0.445945E+02  0.166E+00    2.24       0.0  T
   2    -44.5948431 -0.304054E-03  0.979E-01    2.23       1.0  T
   3    -44.5930814  0.176165E-02  0.216E-01    2.23       1.0  T
   4    -44.5950642 -0.198277E-02  0.377E-02    2.23       1.0  T
   5    -44.5950791 -0.149121E-04  0.204E-02    2.22       1.0  T
   6    -44.5950816 -0.246423E-05  0.864E-03    2.22       2.0  T
   7    -44.5950829 -0.135867E-05  0.280E-03    2.22       6.0  T
   8    -44.5950832 -0.206745E-06  0.102E-03    2.22      16.5  T
   9    -44.5950832 -0.589493E-08  0.426E-04    2.22      39.7  T
  10    -44.5950832 -0.516740E-08  0.120E-04    2.22     140.3  T

   *** convergence criteria satisfied after 10 iterations ***

         #    Occupation            Energy/Eh            Energy/eV
      -------------------------------------------------------------
         1        2.0000           -0.6382504             -17.3677
       ...           ...                  ...                  ...
        36        2.0000           -0.4164548             -11.3323
        37        2.0000           -0.4124433             -11.2232
        38        2.0000           -0.4065805             -11.0636
        39        2.0000           -0.3980340             -10.8311
        40        2.0000           -0.3907761             -10.6336
        41        2.0000           -0.3875044             -10.5445
        42        1.0000           -0.3040136              -8.2726 (HOMO)
        43                         -0.2222736              -6.0484 (LUMO)
        44                         -0.2208438              -6.0095
        45                         -0.2009418              -5.4679
        46                         -0.1433283              -3.9002
        47                         -0.0967671              -2.6332
       ...                                ...                  ...
        83                          0.6338693              17.2485
      -------------------------------------------------------------
                  HL-Gap            0.0817400 Eh            2.2243 eV
             Fermi-level           -0.3044513 Eh           -8.2845 eV

 SCC (total)                   0 d,  0 h,  0 min,  0.026 sec
 SCC setup                      ...        0 min,  0.000 sec (  0.490%)
 Dispersion                     ...        0 min,  0.000 sec (  1.059%)
 classical contributions        ...        0 min,  0.000 sec (  0.224%)
 integral evaluation            ...        0 min,  0.002 sec (  6.223%)
 iterations                     ...        0 min,  0.019 sec ( 74.879%)
 molecular gradient             ...        0 min,  0.004 sec ( 16.019%)
 printout                       ...        0 min,  0.000 sec (  1.069%)

         :::::::::::::::::::::::::::::::::::::::::::::::::::::
         ::                     SUMMARY                     ::
         :::::::::::::::::::::::::::::::::::::::::::::::::::::
         :: total energy             -43.858134568967 Eh    ::
         :: gradient norm              0.071825746403 Eh/a0 ::
         :: HOMO-LUMO gap              2.224258542729 eV    ::
         ::.................................................::
         :: SCC energy               -44.594336585298 Eh    ::
         :: -> isotropic ES            0.004050416154 Eh    ::
         :: -> anisotropic ES          0.009347704382 Eh    ::
         :: -> anisotropic XC          0.030020429447 Eh    ::
         :: -> dispersion             -0.035604399876 Eh    ::
         :: repulsion energy           0.736202016331 Eh    ::
         :: add. restraining           0.000000000000 Eh    ::
         :: total charge               0.000000000000 e     ::
         :::::::::::::::::::::::::::::::::::::::::::::::::::::

      ----------------------------------------------------------- 
     |                   =====================                   |
     |                        A N C O P T                        |
     |                   =====================                   |
     |               Approximate Normal Coordinate               |
     |                Rational Function Optimizer                |
      ----------------------------------------------------------- 
      ----------------------------------------------------------- 
     |                   =====================                   |
     |                        A N C O P T                        |
     |                   =====================                   |
     |               Approximate Normal Coordinate               |
     |                Rational Function Optimizer                |
      ----------------------------------------------------------- 

          ...................................................
          :                      SETUP                      :
          :.................................................:
          :   optimization level            normal          :
          :   max. optcycles                   200          :
          :   ANC micro-cycles                  20          :
          :   degrees of freedom                99          :
          :.................................................:
          :   RF solver                   davidson          :
          :   write xtbopt.log                true          :
          :   linear?                        false          :
          :   energy convergence         0.5000000E-05 Eh   :
          :   grad. convergence          0.1000000E-02 Eh/α :
          :   maxmium RF displ.          1.0000000          :
          :   Hlow (freq-cutoff)         0.1000000E-01      :
          :   Hmax (freq-cutoff)         5.0000000          :
          :   S6 in model hess.         20.0000000          :
          ...................................................

generating ANC from exact Hessian ...
Using Lindh-Hessian (1995)
 Shifting diagonal of input Hessian by    9.5998913762698097E-003
 Lowest  eigenvalues of input Hessian
    0.000000    0.000000    0.000000    0.000000    0.000000    0.000000
    0.010000    0.010419    0.010734    0.011683    0.012184    0.013633
    0.014250    0.015143    0.016428    0.016489    0.018479    0.020127
 Highest eigenvalues
    1.674604    1.798689    1.821506    1.883978    1.926667    1.938480


........................................................................
.............................. CYCLE    1 ..............................
........................................................................

 iter      E             dE          RMSdq      gap      omega  full diag
   1    -44.5950832 -0.445951E+02  0.558E-05    2.22       0.0  T
   2    -44.5950832 -0.105160E-10  0.352E-05    2.22     479.6  T
   3    -44.5950832 -0.129319E-11  0.246E-05    2.22     687.5  T
     SCC iter.                  ...        0 min,  0.003 sec
     gradient                   ...        0 min,  0.003 sec
 * total energy  :   -43.8581346 Eh     change       -0.1626361E-09 Eh
   gradient norm :     0.0718261 Eh/α   predicted     0.0000000E+00 (-100.00%)
   displ. norm   :     0.3541309 α      lambda       -0.1348924E-01
   maximum displ.:     0.1470658 α      in ANC's #20, #17, #58, ...

........................................................................
.............................. CYCLE    2 ..............................
........................................................................

 iter      E             dE          RMSdq      gap      omega  full diag
   1    -44.6344318 -0.446344E+02  0.252E-01    2.27       0.0  T
   2    -44.6344447 -0.128041E-04  0.152E-01    2.27       1.0  T
   3    -44.6343621  0.825978E-04  0.480E-02    2.26       1.0  T
   4    -44.6344543 -0.922300E-04  0.764E-03    2.27       2.2  T
   5    -44.6344557 -0.139050E-05  0.291E-03    2.27       5.8  T
   6    -44.6344557 -0.239316E-07  0.111E-03    2.27      15.2  T
   7    -44.6344557 -0.178897E-07  0.541E-04    2.27      31.3  T
   8    -44.6344557 -0.727567E-08  0.186E-04    2.27      90.9  T
     SCC iter.                  ...        0 min,  0.007 sec
     gradient                   ...        0 min,  0.003 sec
 * total energy  :   -43.8673244 Eh     change       -0.9189818E-02 Eh
   gradient norm :     0.0322641 Eh/α   predicted    -0.7590472E-02 ( -17.40%)
   displ. norm   :     0.3161962 α      lambda       -0.4181865E-02
   maximum displ.:     0.1498962 α      in ANC's #17, #20, #13, ...

........................................................................
.............................. CYCLE    3 ..............................
........................................................................

 iter      E             dE          RMSdq      gap      omega  full diag
   1    -44.6539970 -0.446540E+02  0.189E-01    2.26       0.0  T
   2    -44.6540030 -0.598332E-05  0.113E-01    2.26       1.0  T
   3    -44.6539396  0.634268E-04  0.402E-02    2.26       1.0  T
   4    -44.6540088 -0.691825E-04  0.643E-03    2.26       2.6  T
   5    -44.6540100 -0.125708E-05  0.207E-03    2.26       8.2  T
   6    -44.6540100 -0.878710E-08  0.781E-04    2.26      21.7  T
   7    -44.6540101 -0.120223E-07  0.257E-04    2.26      65.9  T
     SCC iter.                  ...        0 min,  0.006 sec
     gradient                   ...        0 min,  0.003 sec
 * total energy  :   -43.8697555 Eh     change       -0.2431134E-02 Eh
   gradient norm :     0.0091091 Eh/α   predicted    -0.2302040E-02 (  -5.31%)
   displ. norm   :     0.1746178 α      lambda       -0.6010354E-03
   maximum displ.:     0.0797411 α      in ANC's #13, #17, #7, ...

........................................................................
.............................. CYCLE    4 ..............................
........................................................................

 iter      E             dE          RMSdq      gap      omega  full diag
   1    -44.6540336 -0.446540E+02  0.904E-02    2.24       0.0  T
   2    -44.6540343 -0.614190E-06  0.538E-02    2.24       1.0  T
   3    -44.6540049  0.293229E-04  0.260E-02    2.25       1.0  T
   4    -44.6540373 -0.323231E-04  0.204E-03    2.25       8.3  T
   5    -44.6540373 -0.786764E-07  0.863E-04    2.25      19.6  T
   6    -44.6540373 -0.107464E-08  0.482E-04    2.25      35.1  T
     SCC iter.                  ...        0 min,  0.005 sec
     gradient                   ...        0 min,  0.003 sec
 * total energy  :   -43.8701612 Eh     change       -0.4057085E-03 Eh
   gradient norm :     0.0064507 Eh/α   predicted    -0.3096963E-03 ( -23.67%)
   displ. norm   :     0.1748330 α      lambda       -0.2974061E-03
   maximum displ.:     0.0878041 α      in ANC's #2, #7, #10, ...

........................................................................
.............................. CYCLE    5 ..............................
........................................................................

 iter      E             dE          RMSdq      gap      omega  full diag
   1    -44.6534270 -0.446534E+02  0.700E-02    2.23       0.0  T
   2    -44.6534274 -0.431773E-06  0.413E-02    2.23       1.0  T
   3    -44.6534182  0.916976E-05  0.147E-02    2.24       1.1  T
   4    -44.6534282 -0.998276E-05  0.132E-03    2.24      12.8  T
   5    -44.6534283 -0.439277E-07  0.511E-04    2.24      33.1  T
   6    -44.6534283 -0.136346E-09  0.347E-04    2.24      48.7  T
     SCC iter.                  ...        0 min,  0.005 sec
     gradient                   ...        0 min,  0.003 sec
 * total energy  :   -43.8703595 Eh     change       -0.1983154E-03 Eh
   gradient norm :     0.0035207 Eh/α   predicted    -0.1532545E-03 ( -22.72%)
   displ. norm   :     0.1779773 α      lambda       -0.1641792E-03
   maximum displ.:     0.0959397 α      in ANC's #7, #2, #5, ...

........................................................................
.............................. CYCLE    6 ..............................
........................................................................

 iter      E             dE          RMSdq      gap      omega  full diag
   1    -44.6529230 -0.446529E+02  0.598E-02    2.24       0.0  T
   2    -44.6529234 -0.356528E-06  0.352E-02    2.24       1.0  T
   3    -44.6529210  0.238401E-05  0.762E-03    2.24       2.2  T
   4    -44.6529236 -0.259499E-05  0.127E-03    2.24      13.3  T
   5    -44.6529236 -0.535659E-07  0.444E-04    2.24      38.1  T
   6    -44.6529236  0.402927E-09  0.268E-04    2.24      63.0  T
     SCC iter.                  ...        0 min,  0.005 sec
     gradient                   ...        0 min,  0.003 sec
 * total energy  :   -43.8704885 Eh     change       -0.1289370E-03 Eh
   gradient norm :     0.0036855 Eh/α   predicted    -0.8473204E-04 ( -34.28%)
   displ. norm   :     0.2926008 α      lambda       -0.2247057E-03
   maximum displ.:     0.1552817 α      in ANC's #7, #2, #5, ...

........................................................................
.............................. CYCLE    7 ..............................
........................................................................

 iter      E             dE          RMSdq      gap      omega  full diag
   1    -44.6523720 -0.446524E+02  0.979E-02    2.24       0.0  T
   2    -44.6523728 -0.774987E-06  0.576E-02    2.24       1.0  T
   3    -44.6523683  0.445411E-05  0.108E-02    2.24       1.6  T
   4    -44.6523732 -0.488439E-05  0.184E-03    2.24       9.2  T
   5    -44.6523733 -0.109480E-06  0.717E-04    2.24      23.6  T
   6    -44.6523733 -0.759314E-09  0.384E-04    2.24      44.0  T
     SCC iter.                  ...        0 min,  0.005 sec
     gradient                   ...        0 min,  0.003 sec
 * total energy  :   -43.8706577 Eh     change       -0.1692101E-03 Eh
   gradient norm :     0.0050006 Eh/α   predicted    -0.1219732E-03 ( -27.92%)
   displ. norm   :     0.3012594 α      lambda       -0.1812326E-03
   maximum displ.:     0.1527661 α      in ANC's #7, #2, #1, ...

........................................................................
.............................. CYCLE    8 ..............................
........................................................................

 iter      E             dE          RMSdq      gap      omega  full diag
   1    -44.6522639 -0.446523E+02  0.104E-01    2.25       0.0  T
   2    -44.6522646 -0.710789E-06  0.615E-02    2.25       1.0  T
   3    -44.6522602  0.447237E-05  0.108E-02    2.25       1.6  T
   4    -44.6522651 -0.493664E-05  0.184E-03    2.25       9.2  T
   5    -44.6522652 -0.100155E-06  0.749E-04    2.25      22.6  T
   6    -44.6522652 -0.171978E-08  0.321E-04    2.25      52.7  T
     SCC iter.                  ...        0 min,  0.005 sec
     gradient                   ...        0 min,  0.003 sec
 * total energy  :   -43.8707819 Eh     change       -0.1242039E-03 Eh
   gradient norm :     0.0041426 Eh/α   predicted    -0.9884392E-04 ( -20.42%)
   displ. norm   :     0.1668722 α      lambda       -0.7836573E-04
   maximum displ.:     0.0808122 α      in ANC's #2, #7, #1, ...

........................................................................
.............................. CYCLE    9 ..............................
........................................................................

 iter      E             dE          RMSdq      gap      omega  full diag
   1    -44.6537391 -0.446537E+02  0.582E-02    2.26       0.0  T
   2    -44.6537393 -0.246335E-06  0.343E-02    2.26       1.0  T
   3    -44.6537378  0.157830E-05  0.665E-03    2.26       2.5  T
   4    -44.6537395 -0.174126E-05  0.111E-03    2.26      15.3  T
   5    -44.6537395 -0.405792E-07  0.443E-04    2.26      38.1  T
   6    -44.6537395 -0.128489E-08  0.143E-04    2.26     118.4  T
     SCC iter.                  ...        0 min,  0.005 sec
     gradient                   ...        0 min,  0.003 sec
 * total energy  :   -43.8708331 Eh     change       -0.5123897E-04 Eh
   gradient norm :     0.0023358 Eh/α   predicted    -0.4027509E-04 ( -21.40%)
   displ. norm   :     0.0755354 α      lambda       -0.2436700E-04
   maximum displ.:     0.0456565 α      in ANC's #1, #2, #7, ...

........................................................................
.............................. CYCLE   10 ..............................
........................................................................

 iter      E             dE          RMSdq      gap      omega  full diag
   1    -44.6545662 -0.446546E+02  0.243E-02    2.26       0.0  T
   2    -44.6545662 -0.389928E-07  0.144E-02    2.26       1.2  T
   3    -44.6545656  0.594547E-06  0.389E-03    2.26       4.3  T
   4    -44.6545663 -0.649464E-06  0.415E-04    2.26      40.7  T
   5    -44.6545663 -0.411890E-08  0.209E-04    2.26      81.0  T
     SCC iter.                  ...        0 min,  0.004 sec
     gradient                   ...        0 min,  0.003 sec
 * total energy  :   -43.8708496 Eh     change       -0.1647679E-04 Eh
   gradient norm :     0.0007092 Eh/α   predicted    -0.1225331E-04 ( -25.63%)
   displ. norm   :     0.0743240 α      lambda       -0.1196519E-04
   maximum displ.:     0.0552885 α      in ANC's #1, #2, #3, ...

........................................................................
.............................. CYCLE   11 ..............................
........................................................................

 iter      E             dE          RMSdq      gap      omega  full diag
   1    -44.6549746 -0.446550E+02  0.204E-02    2.26       0.0  T
   2    -44.6549746 -0.251283E-07  0.121E-02    2.26       1.4  T
   3    -44.6549743  0.325769E-06  0.284E-03    2.26       6.0  T
   4    -44.6549747 -0.358747E-06  0.338E-04    2.26      50.0  T
   5    -44.6549747 -0.150121E-08  0.198E-04    2.26      85.5  T
     SCC iter.                  ...        0 min,  0.004 sec
     gradient                   ...        0 min,  0.003 sec
 * total energy  :   -43.8708620 Eh     change       -0.1235551E-04 Eh
   gradient norm :     0.0012324 Eh/α   predicted    -0.5998915E-05 ( -51.45%)
   displ. norm   :     0.0610348 α      lambda       -0.1035907E-04
   maximum displ.:     0.0461680 α      in ANC's #1, #12, #4, ...

........................................................................
.............................. CYCLE   12 ..............................
........................................................................

 iter      E             dE          RMSdq      gap      omega  full diag
   1    -44.6547236 -0.446547E+02  0.142E-02    2.26       0.0  T
   2    -44.6547236 -0.218221E-07  0.834E-03    2.26       2.0  T
   3    -44.6547235  0.766603E-07  0.165E-03    2.26      10.3  T
   4    -44.6547236 -0.886520E-07  0.268E-04    2.26      63.1  T
   5    -44.6547236 -0.172493E-08  0.145E-04    2.26     116.2  T
     SCC iter.                  ...        0 min,  0.004 sec
     gradient                   ...        0 min,  0.003 sec
 * total energy  :   -43.8708748 Eh     change       -0.1281118E-04 Eh
   gradient norm :     0.0015557 Eh/α   predicted    -0.5194032E-05 ( -59.46%)
   displ. norm   :     0.0876224 α      lambda       -0.1366482E-04
   maximum displ.:     0.0638264 α      in ANC's #1, #12, #4, ...

........................................................................
.............................. CYCLE   13 ..............................
........................................................................

 iter      E             dE          RMSdq      gap      omega  full diag
   1    -44.6544018 -0.446544E+02  0.205E-02    2.26       0.0  T
   2    -44.6544018 -0.326582E-07  0.122E-02    2.26       1.4  T
   3    -44.6544010  0.806641E-06  0.458E-03    2.26       3.7  T
   4    -44.6544019 -0.881263E-06  0.446E-04    2.26      37.9  T
   5    -44.6544019 -0.536931E-08  0.205E-04    2.26      82.6  T
     SCC iter.                  ...        0 min,  0.004 sec
     gradient                   ...        0 min,  0.003 sec
 * total energy  :   -43.8708897 Eh     change       -0.1494808E-04 Eh
   gradient norm :     0.0006560 Eh/α   predicted    -0.6860225E-05 ( -54.11%)
   displ. norm   :     0.0709823 α      lambda       -0.8422135E-05
   maximum displ.:     0.0594969 α      in ANC's #1, #3, #12, ...

........................................................................
.............................. CYCLE   14 ..............................
........................................................................

 iter      E             dE          RMSdq      gap      omega  full diag
   1    -44.6542151 -0.446542E+02  0.168E-02    2.26       0.0  T
   2    -44.6542151 -0.214795E-07  0.989E-03    2.26       1.7  T
   3    -44.6542148  0.293401E-06  0.283E-03    2.26       6.0  T
   4    -44.6542152 -0.322283E-06  0.332E-04    2.26      50.9  T
   5    -44.6542152 -0.335184E-08  0.147E-04    2.26     114.7  T
     SCC iter.                  ...        0 min,  0.004 sec
     gradient                   ...        0 min,  0.003 sec
 * total energy  :   -43.8708998 Eh     change       -0.1011240E-04 Eh
   gradient norm :     0.0005524 Eh/α   predicted    -0.4223170E-05 ( -58.24%)
   displ. norm   :     0.0494655 α      lambda       -0.5660841E-05
   maximum displ.:     0.0435481 α      in ANC's #1, #3, #4, ...

........................................................................
.............................. CYCLE   15 ..............................
........................................................................

 iter      E             dE          RMSdq      gap      omega  full diag
   1    -44.6543023 -0.446543E+02  0.116E-02    2.26       0.0  T
   2    -44.6543023 -0.983106E-08  0.681E-03    2.26       2.5  T
   3    -44.6543023  0.246684E-07  0.874E-04    2.26      19.3  T
   4    -44.6543024 -0.297479E-07  0.181E-04    2.26      93.5  T
     SCC iter.                  ...        0 min,  0.003 sec
     gradient                   ...        0 min,  0.003 sec
 * total energy  :   -43.8709078 Eh     change       -0.7979587E-05 Eh
   gradient norm :     0.0005688 Eh/α   predicted    -0.2838449E-05 ( -64.43%)
   displ. norm   :     0.0513105 α      lambda       -0.6900560E-05
   maximum displ.:     0.0436633 α      in ANC's #1, #3, #7, ...

........................................................................
.............................. CYCLE   16 ..............................
........................................................................

 iter      E             dE          RMSdq      gap      omega  full diag
   1    -44.6545160 -0.446545E+02  0.122E-02    2.26       0.0  T
   2    -44.6545160 -0.107262E-07  0.715E-03    2.26       2.4  T
   3    -44.6545160  0.430796E-07  0.113E-03    2.26      15.0  T
   4    -44.6545160 -0.496755E-07  0.195E-04    2.26      86.6  T
   5    -44.6545160 -0.475261E-09  0.101E-04    2.26     167.9  T
     SCC iter.                  ...        0 min,  0.004 sec
     gradient                   ...        0 min,  0.003 sec
 * total energy  :   -43.8709176 Eh     change       -0.9797962E-05 Eh
   gradient norm :     0.0006361 Eh/α   predicted    -0.3457862E-05 ( -64.71%)
   displ. norm   :     0.0758951 α      lambda       -0.1020533E-04
   maximum displ.:     0.0616769 α      in ANC's #1, #3, #2, ...

........................................................................
.............................. CYCLE   17 ..............................
........................................................................

 iter      E             dE          RMSdq      gap      omega  full diag
   1    -44.6546326 -0.446546E+02  0.178E-02    2.26       0.0  T
   2    -44.6546326 -0.219709E-07  0.104E-02    2.26       1.6  T
   3    -44.6546324  0.189914E-06  0.222E-03    2.26       7.6  T
   4    -44.6546326 -0.211330E-06  0.288E-04    2.26      58.7  T
   5    -44.6546326 -0.888114E-09  0.153E-04    2.26     110.6  T
     SCC iter.                  ...        0 min,  0.004 sec
     gradient                   ...        0 min,  0.003 sec
 * total energy  :   -43.8709319 Eh     change       -0.1427124E-04 Eh
   gradient norm :     0.0007249 Eh/α   predicted    -0.5119579E-05 ( -64.13%)
   displ. norm   :     0.1019425 α      lambda       -0.1293287E-04
   maximum displ.:     0.0819337 α      in ANC's #1, #2, #3, ...

........................................................................
.............................. CYCLE   18 ..............................
........................................................................

 iter      E             dE          RMSdq      gap      omega  full diag
   1    -44.6547874 -0.446548E+02  0.222E-02    2.26       0.0  T
   2    -44.6547875 -0.315272E-07  0.130E-02    2.26       1.3  T
   3    -44.6547871  0.376923E-06  0.325E-03    2.26       5.2  T
   4    -44.6547875 -0.417303E-06  0.354E-04    2.26      47.7  T
   5    -44.6547875 -0.114089E-08  0.199E-04    2.26      85.1  T
     SCC iter.                  ...        0 min,  0.004 sec
     gradient                   ...        0 min,  0.003 sec
 * total energy  :   -43.8709501 Eh     change       -0.1821743E-04 Eh
   gradient norm :     0.0008156 Eh/α   predicted    -0.6497797E-05 ( -64.33%)
   displ. norm   :     0.1241597 α      lambda       -0.1495685E-04
   maximum displ.:     0.0992507 α      in ANC's #1, #2, #3, ...

........................................................................
.............................. CYCLE   19 ..............................
........................................................................

 iter      E             dE          RMSdq      gap      omega  full diag
   1    -44.6547171 -0.446547E+02  0.266E-02    2.26       0.0  T
   2    -44.6547172 -0.454313E-07  0.156E-02    2.26       1.1  T
   3    -44.6547168  0.331026E-06  0.311E-03    2.26       5.4  T
   4    -44.6547172 -0.372600E-06  0.408E-04    2.26      41.5  T
   5    -44.6547172 -0.147094E-08  0.230E-04    2.26      73.6  T
     SCC iter.                  ...        0 min,  0.004 sec
     gradient                   ...        0 min,  0.003 sec
 * total energy  :   -43.8709715 Eh     change       -0.2135956E-04 Eh
   gradient norm :     0.0007535 Eh/α   predicted    -0.7530634E-05 ( -64.74%)
   displ. norm   :     0.1302753 α      lambda       -0.1564286E-04
   maximum displ.:     0.1038544 α      in ANC's #1, #2, #3, ...

........................................................................
.............................. CYCLE   20 ..............................
........................................................................

 iter      E             dE          RMSdq      gap      omega  full diag
   1    -44.6547311 -0.446547E+02  0.279E-02    2.26       0.0  T
   2    -44.6547311 -0.471881E-07  0.164E-02    2.26       1.0  T
   3    -44.6547309  0.260695E-06  0.287E-03    2.26       5.9  T
   4    -44.6547312 -0.300398E-06  0.402E-04    2.26      42.0  T
   5    -44.6547312 -0.123602E-08  0.235E-04    2.26      71.9  T
     SCC iter.                  ...        0 min,  0.004 sec
     gradient                   ...        0 min,  0.003 sec
 * total energy  :   -43.8709940 Eh     change       -0.2251942E-04 Eh
   gradient norm :     0.0006473 Eh/α   predicted    -0.7881064E-05 ( -65.00%)
   displ. norm   :     0.1258183 α      lambda       -0.1566839E-04
   maximum displ.:     0.1017596 α      in ANC's #1, #2, #3, ...
 * RMSD in coord.:     0.3253430 α      energy gain  -0.1285942E-01 Eh

generating ANC from exact Hessian ...
Using Lindh-Hessian (1995)
 Shifting diagonal of input Hessian by    9.5813026672797522E-003
 Lowest  eigenvalues of input Hessian
    0.000000    0.000000    0.000000    0.000000    0.000000    0.000000
    0.010000    0.010144    0.010541    0.011155    0.011952    0.013833
    0.014547    0.015624    0.016614    0.017225    0.018994    0.020125
 Highest eigenvalues
    1.724671    1.896848    1.911005    1.949267    2.000432    2.026373


........................................................................
.............................. CYCLE   21 ..............................
........................................................................

 iter      E             dE          RMSdq      gap      omega  full diag
   1    -44.6545236 -0.446545E+02  0.275E-02    2.26       0.0  T
   2    -44.6545236 -0.498186E-07  0.161E-02    2.26       1.0  T
   3    -44.6545235  0.104384E-06  0.192E-03    2.26       8.8  T
   4    -44.6545236 -0.130282E-06  0.382E-04    2.26      44.3  T
   5    -44.6545236 -0.157293E-08  0.215E-04    2.26      78.5  T
     SCC iter.                  ...        0 min,  0.004 sec
     gradient                   ...        0 min,  0.003 sec
 * total energy  :   -43.8710169 Eh     change       -0.2288891E-04 Eh
   gradient norm :     0.0005589 Eh/α   predicted     0.0000000E+00 (-100.00%)
   displ. norm   :     0.0386344 α      lambda       -0.7865881E-05
   maximum displ.:     0.0317003 α      in ANC's #1, #2, #9, ...

........................................................................
.............................. CYCLE   22 ..............................
........................................................................

 iter      E             dE          RMSdq      gap      omega  full diag
   1    -44.6546350 -0.446546E+02  0.787E-03    2.26       0.0  T
   2    -44.6546350 -0.536026E-08  0.465E-03    2.26       3.6  T
   3    -44.6546349  0.972796E-07  0.158E-03    2.26      10.7  T
   4    -44.6546350 -0.106289E-06  0.168E-04    2.26     100.5  T
   5    -44.6546350 -0.550010E-09  0.882E-05    2.26     191.7  T
     SCC iter.                  ...        0 min,  0.004 sec
     gradient                   ...        0 min,  0.003 sec
 * total energy  :   -43.8710279 Eh     change       -0.1103181E-04 Eh
   gradient norm :     0.0003099 Eh/α   predicted    -0.3942375E-05 ( -64.26%)
   displ. norm   :     0.0877146 α      lambda       -0.1602046E-04
   maximum displ.:     0.0648283 α      in ANC's #1, #2, #9, ...

........................................................................
.............................. CYCLE   23 ..............................
........................................................................

 iter      E             dE          RMSdq      gap      omega  full diag
   1    -44.6546377 -0.446546E+02  0.159E-02    2.26       0.0  T
   2    -44.6546377 -0.194414E-07  0.944E-03    2.26       1.8  T
   3    -44.6546373  0.383025E-06  0.313E-03    2.26       5.4  T
   4    -44.6546377 -0.418410E-06  0.336E-04    2.26      50.3  T
   5    -44.6546377 -0.219387E-08  0.174E-04    2.26      97.1  T
     SCC iter.                  ...        0 min,  0.004 sec
     gradient                   ...        0 min,  0.003 sec
 * total energy  :   -43.8710498 Eh     change       -0.2188164E-04 Eh
   gradient norm :     0.0004996 Eh/α   predicted    -0.8038749E-05 ( -63.26%)
   displ. norm   :     0.1590742 α      lambda       -0.2534605E-04
   maximum displ.:     0.1195644 α      in ANC's #1, #2, #11, ...

........................................................................
.............................. CYCLE   24 ..............................
........................................................................

 iter      E             dE          RMSdq      gap      omega  full diag
   1    -44.6545083 -0.446545E+02  0.266E-02    2.26       0.0  T
   2    -44.6545084 -0.760390E-07  0.157E-02    2.26       1.1  T
   3    -44.6545080  0.404448E-06  0.329E-03    2.26       5.1  T
   4    -44.6545084 -0.452265E-06  0.591E-04    2.26      28.6  T
   5    -44.6545084 -0.701035E-08  0.312E-04    2.26      54.1  T
     SCC iter.                  ...        0 min,  0.004 sec
     gradient                   ...        0 min,  0.003 sec
 * total energy  :   -43.8710834 Eh     change       -0.3356732E-04 Eh
   gradient norm :     0.0006107 Eh/α   predicted    -0.1281690E-04 ( -61.82%)
   displ. norm   :     0.1816600 α      lambda       -0.2589981E-04
   maximum displ.:     0.1420281 α      in ANC's #1, #2, #11, ...

........................................................................
.............................. CYCLE   25 ..............................
........................................................................

 iter      E             dE          RMSdq      gap      omega  full diag
   1    -44.6544278 -0.446544E+02  0.294E-02    2.25       0.0  T
   2    -44.6544279 -0.835133E-07  0.173E-02    2.25       1.0  T
   3    -44.6544276  0.312338E-06  0.297E-03    2.25       5.7  T
   4    -44.6544279 -0.362483E-06  0.535E-04    2.25      31.6  T
   5    -44.6544279 -0.309136E-08  0.322E-04    2.25      52.5  T
     SCC iter.                  ...        0 min,  0.004 sec
     gradient                   ...        0 min,  0.003 sec
 * total energy  :   -43.8711190 Eh     change       -0.3568333E-04 Eh
   gradient norm :     0.0007222 Eh/α   predicted    -0.1314053E-04 ( -63.17%)
   displ. norm   :     0.1576309 α      lambda       -0.2394602E-04
   maximum displ.:     0.1282646 α      in ANC's #1, #2, #11, ...

........................................................................
.............................. CYCLE   26 ..............................
........................................................................

 iter      E             dE          RMSdq      gap      omega  full diag
   1    -44.6544798 -0.446545E+02  0.251E-02    2.25       0.0  T
   2    -44.6544799 -0.608644E-07  0.148E-02    2.25       1.1  T
   3    -44.6544796  0.212892E-06  0.245E-03    2.25       6.9  T
   4    -44.6544799 -0.248994E-06  0.459E-04    2.25      36.8  T
   5    -44.6544799 -0.221998E-08  0.279E-04    2.25      60.6  T
     SCC iter.                  ...        0 min,  0.004 sec
     gradient                   ...        0 min,  0.003 sec
 * total energy  :   -43.8711542 Eh     change       -0.3513248E-04 Eh
   gradient norm :     0.0006241 Eh/α   predicted    -0.1211419E-04 ( -65.52%)
   displ. norm   :     0.1493754 α      lambda       -0.2704026E-04
   maximum displ.:     0.1244440 α      in ANC's #1, #2, #7, ...

........................................................................
.............................. CYCLE   27 ..............................
........................................................................

 iter      E             dE          RMSdq      gap      omega  full diag
   1    -44.6546586 -0.446547E+02  0.241E-02    2.25       0.0  T
   2    -44.6546587 -0.502694E-07  0.142E-02    2.25       1.2  T
   3    -44.6546583  0.356777E-06  0.311E-03    2.25       5.4  T
   4    -44.6546587 -0.399754E-06  0.481E-04    2.25      35.1  T
   5    -44.6546587 -0.380486E-08  0.259E-04    2.25      65.3  T
     SCC iter.                  ...        0 min,  0.004 sec
     gradient                   ...        0 min,  0.003 sec
 * total energy  :   -43.8711944 Eh     change       -0.4021199E-04 Eh
   gradient norm :     0.0005712 Eh/α   predicted    -0.1365723E-04 ( -66.04%)
   displ. norm   :     0.2306273 α      lambda       -0.4568818E-04
   maximum displ.:     0.1937028 α      in ANC's #1, #2, #7, ...

........................................................................
.............................. CYCLE   28 ..............................
........................................................................

 iter      E             dE          RMSdq      gap      omega  full diag
   1    -44.6546621 -0.446547E+02  0.379E-02    2.25       0.0  T
   2    -44.6546622 -0.134082E-06  0.223E-02    2.25       1.0  T
   3    -44.6546611  0.119669E-05  0.569E-03    2.25       3.0  T
   4    -44.6546624 -0.132495E-05  0.791E-04    2.25      21.4  T
   5    -44.6546624 -0.116201E-07  0.402E-04    2.25      42.0  T
   6    -44.6546624 -0.129278E-08  0.159E-04    2.25     106.5  T
     SCC iter.                  ...        0 min,  0.005 sec
     gradient                   ...        0 min,  0.003 sec
 * total energy  :   -43.8712624 Eh     change       -0.6803883E-04 Eh
   gradient norm :     0.0008816 Eh/α   predicted    -0.2338655E-04 ( -65.63%)
   displ. norm   :     0.2951351 α      lambda       -0.6170163E-04
   maximum displ.:     0.2489316 α      in ANC's #1, #2, #7, ...

........................................................................
.............................. CYCLE   29 ..............................
........................................................................

 iter      E             dE          RMSdq      gap      omega  full diag
   1    -44.6545109 -0.446545E+02  0.489E-02    2.25       0.0  T
   2    -44.6545111 -0.224829E-06  0.287E-02    2.25       1.0  T
   3    -44.6545086  0.247212E-05  0.818E-03    2.25       2.1  T
   4    -44.6545114 -0.272247E-05  0.104E-03    2.25      16.3  T
   5    -44.6545114 -0.211086E-07  0.516E-04    2.25      32.7  T
   6    -44.6545114 -0.196259E-08  0.214E-04    2.25      79.0  T
     SCC iter.                  ...        0 min,  0.005 sec
     gradient                   ...        0 min,  0.003 sec
 * total energy  :   -43.8713533 Eh     change       -0.9092500E-04 Eh
   gradient norm :     0.0015718 Eh/α   predicted    -0.3204614E-04 ( -64.76%)
   displ. norm   :     0.2732974 α      lambda       -0.5978166E-04
   maximum displ.:     0.2322057 α      in ANC's #1, #2, #3, ...

........................................................................
.............................. CYCLE   30 ..............................
........................................................................

 iter      E             dE          RMSdq      gap      omega  full diag
   1    -44.6545496 -0.446545E+02  0.455E-02    2.25       0.0  T
   2    -44.6545498 -0.187358E-06  0.267E-02    2.25       1.0  T
   3    -44.6545473  0.244216E-05  0.812E-03    2.25       2.1  T
   4    -44.6545500 -0.268241E-05  0.976E-04    2.25      17.3  T
   5    -44.6545500 -0.195728E-07  0.477E-04    2.25      35.4  T
   6    -44.6545500 -0.150634E-08  0.193E-04    2.25      87.4  T
     SCC iter.                  ...        0 min,  0.005 sec
     gradient                   ...        0 min,  0.003 sec
 * total energy  :   -43.8714406 Eh     change       -0.8720902E-04 Eh
   gradient norm :     0.0021616 Eh/α   predicted    -0.3088760E-04 ( -64.58%)
   displ. norm   :     0.1463926 α      lambda       -0.5073985E-04
   maximum displ.:     0.1254224 α      in ANC's #1, #2, #3, ...

........................................................................
.............................. CYCLE   31 ..............................
........................................................................

 iter      E             dE          RMSdq      gap      omega  full diag
   1    -44.6547531 -0.446548E+02  0.245E-02    2.25       0.0  T
   2    -44.6547532 -0.490372E-07  0.144E-02    2.25       1.2  T
   3    -44.6547524  0.756950E-06  0.453E-03    2.25       3.7  T
   4    -44.6547533 -0.830470E-06  0.520E-04    2.25      32.5  T
   5    -44.6547533 -0.562839E-08  0.254E-04    2.25      66.6  T
     SCC iter.                  ...        0 min,  0.004 sec
     gradient                   ...        0 min,  0.003 sec
 * total energy  :   -43.8714904 Eh     change       -0.4986639E-04 Eh
   gradient norm :     0.0023010 Eh/α   predicted    -0.2591465E-04 ( -48.03%)
   displ. norm   :     0.1257842 α      lambda       -0.4724891E-04
   maximum displ.:     0.1083183 α      in ANC's #1, #3, #2, ...

........................................................................
.............................. CYCLE   32 ..............................
........................................................................

 iter      E             dE          RMSdq      gap      omega  full diag
   1    -44.6550636 -0.446551E+02  0.211E-02    2.25       0.0  T
   2    -44.6550636 -0.358385E-07  0.124E-02    2.25       1.4  T
   3    -44.6550631  0.483687E-06  0.367E-03    2.25       4.6  T
   4    -44.6550637 -0.532399E-06  0.446E-04    2.25      37.9  T
   5    -44.6550637 -0.407652E-08  0.221E-04    2.25      76.4  T
     SCC iter.                  ...        0 min,  0.004 sec
     gradient                   ...        0 min,  0.003 sec
 * total energy  :   -43.8715370 Eh     change       -0.4660526E-04 Eh
   gradient norm :     0.0023191 Eh/α   predicted    -0.2399920E-04 ( -48.51%)
   displ. norm   :     0.1233127 α      lambda       -0.4993960E-04
   maximum displ.:     0.1060391 α      in ANC's #1, #3, #2, ...

........................................................................
.............................. CYCLE   33 ..............................
........................................................................

 iter      E             dE          RMSdq      gap      omega  full diag
   1    -44.6552779 -0.446553E+02  0.209E-02    2.25       0.0  T
   2    -44.6552779 -0.356915E-07  0.123E-02    2.24       1.4  T
   3    -44.6552776  0.353208E-06  0.317E-03    2.24       5.3  T
   4    -44.6552780 -0.390953E-06  0.430E-04    2.24      39.3  T
   5    -44.6552780 -0.362606E-08  0.217E-04    2.24      77.8  T
     SCC iter.                  ...        0 min,  0.004 sec
     gradient                   ...        0 min,  0.003 sec
 * total energy  :   -43.8715865 Eh     change       -0.4951922E-04 Eh
   gradient norm :     0.0022865 Eh/α   predicted    -0.2535159E-04 ( -48.80%)
   displ. norm   :     0.1348941 α      lambda       -0.5873502E-04
   maximum displ.:     0.1154083 α      in ANC's #1, #3, #2, ...

........................................................................
.............................. CYCLE   34 ..............................
........................................................................

 iter      E             dE          RMSdq      gap      omega  full diag
   1    -44.6553821 -0.446554E+02  0.231E-02    2.24       0.0  T
   2    -44.6553821 -0.441676E-07  0.136E-02    2.24       1.2  T
   3    -44.6553818  0.305189E-06  0.299E-03    2.24       5.7  T
   4    -44.6553822 -0.341760E-06  0.448E-04    2.24      37.8  T
   5    -44.6553822 -0.354934E-08  0.236E-04    2.24      71.6  T
     SCC iter.                  ...        0 min,  0.004 sec
     gradient                   ...        0 min,  0.003 sec
 * total energy  :   -43.8716449 Eh     change       -0.5838782E-04 Eh
   gradient norm :     0.0022205 Eh/α   predicted    -0.2990428E-04 ( -48.78%)
   displ. norm   :     0.1640222 α      lambda       -0.7587352E-04
   maximum displ.:     0.1397203 α      in ANC's #1, #3, #5, ...

........................................................................
.............................. CYCLE   35 ..............................
........................................................................

 iter      E             dE          RMSdq      gap      omega  full diag
   1    -44.6553679 -0.446554E+02  0.283E-02    2.24       0.0  T
   2    -44.6553680 -0.672544E-07  0.167E-02    2.24       1.0  T
   3    -44.6553677  0.350399E-06  0.323E-03    2.24       5.2  T
   4    -44.6553681 -0.397864E-06  0.510E-04    2.24      33.2  T
   5    -44.6553681 -0.393415E-08  0.283E-04    2.24      59.7  T
     SCC iter.                  ...        0 min,  0.004 sec
     gradient                   ...        0 min,  0.003 sec
 * total energy  :   -43.8717202 Eh     change       -0.7524995E-04 Eh
   gradient norm :     0.0021355 Eh/α   predicted    -0.3895779E-04 ( -48.23%)
   displ. norm   :     0.2165054 α      lambda       -0.1044562E-03
   maximum displ.:     0.1845014 α      in ANC's #1, #3, #5, ...

........................................................................
.............................. CYCLE   36 ..............................
........................................................................

 iter      E             dE          RMSdq      gap      omega  full diag
   1    -44.6551991 -0.446552E+02  0.375E-02    2.24       0.0  T
   2    -44.6551992 -0.118572E-06  0.221E-02    2.24       1.0  T
   3    -44.6551987  0.536843E-06  0.400E-03    2.24       4.2  T
   4    -44.6551993 -0.614794E-06  0.640E-04    2.24      26.4  T
   5    -44.6551993 -0.569168E-08  0.365E-04    2.24      46.3  T
     SCC iter.                  ...        0 min,  0.004 sec
     gradient                   ...        0 min,  0.003 sec
 * total energy  :   -43.8718231 Eh     change       -0.1028723E-03 Eh
   gradient norm :     0.0020851 Eh/α   predicted    -0.5467754E-04 ( -46.85%)
   displ. norm   :     0.3016076 α      lambda       -0.1487317E-03
   maximum displ.:     0.2588509 α      in ANC's #1, #3, #5, ...

........................................................................
.............................. CYCLE   37 ..............................
........................................................................

 iter      E             dE          RMSdq      gap      omega  full diag
   1    -44.6547298 -0.446547E+02  0.521E-02    2.24       0.0  T
   2    -44.6547301 -0.231853E-06  0.307E-02    2.24       1.0  T
   3    -44.6547290  0.102228E-05  0.553E-03    2.24       3.1  T
   4    -44.6547302 -0.117200E-05  0.876E-04    2.24      19.3  T
   5    -44.6547302 -0.110624E-07  0.502E-04    2.24      33.7  T
   6    -44.6547302 -0.274347E-08  0.170E-04    2.24      99.7  T
     SCC iter.                  ...        0 min,  0.005 sec
     gradient                   ...        0 min,  0.003 sec
 * total energy  :   -43.8719670 Eh     change       -0.1439558E-03 Eh
   gradient norm :     0.0022577 Eh/α   predicted    -0.8113253E-04 ( -43.64%)
   displ. norm   :     0.4421661 α      lambda       -0.2167771E-03
   maximum displ.:     0.3849056 α      in ANC's #1, #3, #5, ...

........................................................................
.............................. CYCLE   38 ..............................
........................................................................

 iter      E             dE          RMSdq      gap      omega  full diag
   1    -44.6535487 -0.446535E+02  0.761E-02    2.23       0.0  T
   2    -44.6535492 -0.498886E-06  0.448E-02    2.23       1.0  T
   3    -44.6535468  0.241036E-05  0.856E-03    2.23       2.0  T
   4    -44.6535495 -0.274446E-05  0.131E-03    2.23      12.9  T
   5    -44.6535495 -0.285585E-07  0.730E-04    2.23      23.2  T
   6    -44.6535496 -0.493569E-08  0.264E-04    2.23      64.1  T
     SCC iter.                  ...        0 min,  0.005 sec
     gradient                   ...        0 min,  0.003 sec
 * total energy  :   -43.8721665 Eh     change       -0.1994439E-03 Eh
   gradient norm :     0.0031354 Eh/α   predicted    -0.1295799E-03 ( -35.03%)
   displ. norm   :     0.7481263 α      lambda       -0.3407296E-03
   maximum displ.:     0.6646462 α      in ANC's #1, #3, #5, ...

........................................................................
.............................. CYCLE   39 ..............................
........................................................................

 iter      E             dE          RMSdq      gap      omega  full diag
   1    -44.6499146 -0.446499E+02  0.129E-01    2.22       0.0  T
   2    -44.6499161 -0.150777E-05  0.757E-02    2.22       1.0  T
   3    -44.6499067  0.941079E-05  0.169E-02    2.22       1.0  T
   4    -44.6499172 -0.105807E-04  0.238E-03    2.22       7.1  T
   5    -44.6499174 -0.109761E-06  0.127E-03    2.22      13.3  T
   6    -44.6499174 -0.117961E-07  0.498E-04    2.22      33.9  T
   7    -44.6499174 -0.384845E-08  0.210E-04    2.22      80.6  T
     SCC iter.                  ...        0 min,  0.006 sec
     gradient                   ...        0 min,  0.003 sec
 * total energy  :   -43.8724093 Eh     change       -0.2428846E-03 Eh
   gradient norm :     0.0062077 Eh/α   predicted    -0.2657202E-03 (   9.40%)
   displ. norm   :     0.3823135 α      lambda       -0.2023694E-03
   maximum displ.:     0.3517649 α      in ANC's #1, #3, #2, ...

........................................................................
.............................. CYCLE   40 ..............................
........................................................................

 iter      E             dE          RMSdq      gap      omega  full diag
   1    -44.6512121 -0.446512E+02  0.669E-02    2.22       0.0  T
   2    -44.6512130 -0.889771E-06  0.392E-02    2.22       1.0  T
   3    -44.6512103  0.263868E-05  0.906E-03    2.22       1.9  T
   4    -44.6512133 -0.295995E-05  0.163E-03    2.22      10.4  T
   5    -44.6512133 -0.668019E-07  0.714E-04    2.22      23.7  T
   6    -44.6512133 -0.485790E-08  0.376E-04    2.22      44.9  T
     SCC iter.                  ...        0 min,  0.005 sec
     gradient                   ...        0 min,  0.003 sec
 * total energy  :   -43.8725557 Eh     change       -0.1463113E-03 Eh
   gradient norm :     0.0045840 Eh/α   predicted    -0.1159779E-03 ( -20.73%)
   displ. norm   :     0.3922288 α      lambda       -0.2032808E-03
   maximum displ.:     0.3581156 α      in ANC's #1, #3, #5, ...

........................................................................
.............................. CYCLE   41 ..............................
........................................................................

 iter      E             dE          RMSdq      gap      omega  full diag
   1    -44.6544634 -0.446545E+02  0.751E-02    2.21       0.0  T
   2    -44.6544638 -0.453482E-06  0.442E-02    2.21       1.0  T
   3    -44.6544628  0.105907E-05  0.579E-03    2.21       2.9  T
   4    -44.6544640 -0.127812E-05  0.120E-03    2.21      14.1  T
   5    -44.6544641 -0.190843E-07  0.728E-04    2.21      23.2  T
   6    -44.6544641 -0.840507E-08  0.232E-04    2.21      72.7  T
     SCC iter.                  ...        0 min,  0.005 sec
     gradient                   ...        0 min,  0.003 sec
 * total energy  :   -43.8726963 Eh     change       -0.1406800E-03 Eh
   gradient norm :     0.0033933 Eh/α   predicted    -0.1172822E-03 ( -16.63%)
   displ. norm   :     0.3281799 α      lambda       -0.1394474E-03
   maximum displ.:     0.2859075 α      in ANC's #1, #4, #5, ...

........................................................................
.............................. CYCLE   42 ..............................
........................................................................

 iter      E             dE          RMSdq      gap      omega  full diag
   1    -44.6575073 -0.446575E+02  0.731E-02    2.21       0.0  T
   2    -44.6575081 -0.798602E-06  0.430E-02    2.21       1.0  T
   3    -44.6575067  0.143379E-05  0.664E-03    2.21       2.5  T
   4    -44.6575083 -0.162500E-05  0.180E-03    2.21       9.4  T
   5    -44.6575084 -0.849619E-07  0.709E-04    2.21      23.9  T
   6    -44.6575084 -0.444889E-08  0.367E-04    2.21      46.1  T
     SCC iter.                  ...        0 min,  0.005 sec
     gradient                   ...        0 min,  0.003 sec
 * total energy  :   -43.8727921 Eh     change       -0.9578085E-04 Eh
   gradient norm :     0.0026340 Eh/α   predicted    -0.7723577E-04 ( -19.36%)
   displ. norm   :     0.5305747 α      lambda       -0.1323142E-03
   maximum displ.:     0.4599935 α      in ANC's #1, #5, #4, ...
 * RMSD in coord.:     0.8802395 α      energy gain  -0.1798128E-02 Eh

generating ANC from exact Hessian ...
Using Lindh-Hessian (1995)
 Shifting diagonal of input Hessian by    9.4846824358237273E-003
 Lowest  eigenvalues of input Hessian
    0.000000    0.000000    0.000000    0.000000    0.000000    0.000000
    0.010000    0.010507    0.011055    0.011615    0.011828    0.013705
    0.014888    0.015773    0.016635    0.017741    0.019176    0.019880
 Highest eigenvalues
    1.730820    1.894528    1.916562    1.954408    1.997497    2.024672


........................................................................
.............................. CYCLE   43 ..............................
........................................................................

 iter      E             dE          RMSdq      gap      omega  full diag
   1    -44.6537262 -0.446537E+02  0.112E-01    2.20       0.0  T
   2    -44.6537272 -0.100377E-05  0.659E-02    2.20       1.0  T
   3    -44.6537252  0.197066E-05  0.833E-03    2.20       2.0  T
   4    -44.6537277 -0.244141E-05  0.174E-03    2.20       9.7  T
   5    -44.6537277 -0.351331E-07  0.105E-03    2.20      16.1  T
   6    -44.6537277 -0.134523E-07  0.371E-04    2.20      45.6  T
   7    -44.6537277 -0.267195E-08  0.133E-04    2.20     126.7  T
     SCC iter.                  ...        0 min,  0.006 sec
     gradient                   ...        0 min,  0.003 sec
 * total energy  :   -43.8728535 Eh     change       -0.6137441E-04 Eh
   gradient norm :     0.0045216 Eh/α   predicted     0.0000000E+00 (-100.00%)
   displ. norm   :     0.0710015 α      lambda       -0.1135957E-03
   maximum displ.:     0.0518642 α      in ANC's #3, #5, #11, ...

........................................................................
.............................. CYCLE   44 ..............................
........................................................................

 iter      E             dE          RMSdq      gap      omega  full diag
   1    -44.6560767 -0.446561E+02  0.277E-02    2.21       0.0  T
   2    -44.6560770 -0.285485E-06  0.162E-02    2.21       1.0  T
   3    -44.6560761  0.858817E-06  0.475E-03    2.21       3.6  T
   4    -44.6560771 -0.947677E-06  0.109E-03    2.21      15.4  T
   5    -44.6560771 -0.355422E-07  0.404E-04    2.21      41.9  T
   6    -44.6560771 -0.117291E-08  0.228E-04    2.21      74.1  T
     SCC iter.                  ...        0 min,  0.005 sec
     gradient                   ...        0 min,  0.003 sec
 * total energy  :   -43.8729396 Eh     change       -0.8615427E-04 Eh
   gradient norm :     0.0013659 Eh/α   predicted    -0.5747240E-04 ( -33.29%)
   displ. norm   :     0.2087389 α      lambda       -0.1114433E-03
   maximum displ.:     0.1414739 α      in ANC's #3, #5, #11, ...

........................................................................
.............................. CYCLE   45 ..............................
........................................................................

 iter      E             dE          RMSdq      gap      omega  full diag
   1    -44.6585978 -0.446586E+02  0.706E-02    2.21       0.0  T
   2    -44.6585985 -0.670217E-06  0.414E-02    2.21       1.0  T
   3    -44.6585966  0.184845E-05  0.708E-03    2.21       2.4  T
   4    -44.6585987 -0.209281E-05  0.159E-03    2.21      10.6  T
   5    -44.6585988 -0.685415E-07  0.706E-04    2.21      23.9  T
   6    -44.6585988 -0.540243E-08  0.336E-04    2.21      50.2  T
     SCC iter.                  ...        0 min,  0.005 sec
     gradient                   ...        0 min,  0.003 sec
 * total energy  :   -43.8730514 Eh     change       -0.1117836E-03 Eh
   gradient norm :     0.0037017 Eh/α   predicted    -0.5680079E-04 ( -49.19%)
   displ. norm   :     0.1337776 α      lambda       -0.8138199E-04
   maximum displ.:     0.0849914 α      in ANC's #5, #3, #4, ...

........................................................................
.............................. CYCLE   46 ..............................
........................................................................

 iter      E             dE          RMSdq      gap      omega  full diag
   1    -44.6581441 -0.446581E+02  0.414E-02    2.21       0.0  T
   2    -44.6581443 -0.124367E-06  0.243E-02    2.21       1.0  T
   3    -44.6581441  0.152593E-06  0.232E-03    2.21       7.3  T
   4    -44.6581443 -0.212574E-06  0.471E-04    2.21      35.9  T
   5    -44.6581443 -0.584720E-09  0.255E-04    2.21      66.4  T
     SCC iter.                  ...        0 min,  0.004 sec
     gradient                   ...        0 min,  0.003 sec
 * total energy  :   -43.8731266 Eh     change       -0.7517835E-04 Eh
   gradient norm :     0.0031922 Eh/α   predicted    -0.4142493E-04 ( -44.90%)
   displ. norm   :     0.3118139 α      lambda       -0.1784011E-03
   maximum displ.:     0.1962626 α      in ANC's #5, #3, #4, ...

........................................................................
.............................. CYCLE   47 ..............................
........................................................................

 iter      E             dE          RMSdq      gap      omega  full diag
   1    -44.6561155 -0.446561E+02  0.938E-02    2.21       0.0  T
   2    -44.6561162 -0.667758E-06  0.550E-02    2.21       1.0  T
   3    -44.6561150  0.114444E-05  0.593E-03    2.21       2.9  T
   4    -44.6561165 -0.147620E-05  0.127E-03    2.21      13.3  T
   5    -44.6561165 -0.125617E-07  0.800E-04    2.21      21.1  T
   6    -44.6561165 -0.108435E-07  0.277E-04    2.21      60.9  T
     SCC iter.                  ...        0 min,  0.005 sec
     gradient                   ...        0 min,  0.003 sec
 * total energy  :   -43.8732672 Eh     change       -0.1406469E-03 Eh
   gradient norm :     0.0014750 Eh/α   predicted    -0.9787665E-04 ( -30.41%)
   displ. norm   :     0.4485804 α      lambda       -0.1145671E-03
   maximum displ.:     0.2938666 α      in ANC's #5, #3, #4, ...

........................................................................
.............................. CYCLE   48 ..............................
........................................................................

 iter      E             dE          RMSdq      gap      omega  full diag
   1    -44.6529046 -0.446529E+02  0.132E-01    2.21       0.0  T
   2    -44.6529059 -0.134108E-05  0.772E-02    2.20       1.0  T
   3    -44.6529034  0.253864E-05  0.866E-03    2.21       2.0  T
   4    -44.6529066 -0.321181E-05  0.188E-03    2.20       9.0  T
   5    -44.6529066 -0.364974E-07  0.118E-03    2.20      14.4  T
   6    -44.6529067 -0.228986E-07  0.376E-04    2.20      45.0  T
   7    -44.6529067 -0.303844E-08  0.117E-04    2.20     145.1  T
     SCC iter.                  ...        0 min,  0.006 sec
     gradient                   ...        0 min,  0.003 sec
 * total energy  :   -43.8733617 Eh     change       -0.9444904E-04 Eh
   gradient norm :     0.0046835 Eh/α   predicted    -0.6240934E-04 ( -33.92%)
   displ. norm   :     0.0745319 α      lambda       -0.6033736E-04
   maximum displ.:     0.0519501 α      in ANC's #5, #4, #3, ...

........................................................................
.............................. CYCLE   49 ..............................
........................................................................

 iter      E             dE          RMSdq      gap      omega  full diag
   1    -44.6544156 -0.446544E+02  0.208E-02    2.21       0.0  T
   2    -44.6544157 -0.733532E-07  0.122E-02    2.21       1.4  T
   3    -44.6544156  0.625874E-07  0.151E-03    2.21      11.2  T
   4    -44.6544157 -0.807904E-07  0.355E-04    2.21      47.6  T
   5    -44.6544157 -0.206209E-08  0.190E-04    2.21      89.2  T
     SCC iter.                  ...        0 min,  0.004 sec
     gradient                   ...        0 min,  0.003 sec
 * total energy  :   -43.8734168 Eh     change       -0.5511065E-04 Eh
   gradient norm :     0.0036949 Eh/α   predicted    -0.3034019E-04 ( -44.95%)
   displ. norm   :     0.3146307 α      lambda       -0.2352109E-03
   maximum displ.:     0.2184348 α      in ANC's #5, #4, #11, ...

........................................................................
.............................. CYCLE   50 ..............................
........................................................................

 iter      E             dE          RMSdq      gap      omega  full diag
   1    -44.6581699 -0.446582E+02  0.850E-02    2.22       0.0  T
   2    -44.6581707 -0.828811E-06  0.500E-02    2.21       1.0  T
   3    -44.6581699  0.824326E-06  0.535E-03    2.21       3.2  T
   4    -44.6581709 -0.104804E-05  0.149E-03    2.21      11.4  T
   5    -44.6581710 -0.408608E-07  0.818E-04    2.21      20.7  T
   6    -44.6581710 -0.102498E-07  0.372E-04    2.21      45.4  T
     SCC iter.                  ...        0 min,  0.005 sec
     gradient                   ...        0 min,  0.003 sec
 * total energy  :   -43.8736008 Eh     change       -0.1840071E-03 Eh
   gradient norm :     0.0025825 Eh/α   predicted    -0.1292458E-03 ( -29.76%)
   displ. norm   :     0.5502169 α      lambda       -0.2655588E-03
   maximum displ.:     0.4003741 α      in ANC's #5, #4, #3, ...

........................................................................
.............................. CYCLE   51 ..............................
........................................................................

 iter      E             dE          RMSdq      gap      omega  full diag
   1    -44.6570312 -0.446570E+02  0.149E-01    2.22       0.0  T
   2    -44.6570325 -0.130964E-05  0.874E-02    2.21       1.0  T
   3    -44.6570307  0.185550E-05  0.799E-03    2.21       2.1  T
   4    -44.6570332 -0.249988E-05  0.200E-03    2.21       8.5  T
   5    -44.6570332 -0.169910E-07  0.130E-03    2.21      13.0  T
   6    -44.6570332 -0.358731E-07  0.306E-04    2.21      55.2  T
   7    -44.6570332 -0.198275E-08  0.117E-04    2.21     143.9  T
     SCC iter.                  ...        0 min,  0.006 sec
     gradient                   ...        0 min,  0.003 sec
 * total energy  :   -43.8738206 Eh     change       -0.2198206E-03 Eh
   gradient norm :     0.0048830 Eh/α   predicted    -0.1729664E-03 ( -21.31%)
   displ. norm   :     0.4363341 α      lambda       -0.2097811E-03
   maximum displ.:     0.3240862 α      in ANC's #5, #4, #3, ...

........................................................................
.............................. CYCLE   52 ..............................
........................................................................

 iter      E             dE          RMSdq      gap      omega  full diag
   1    -44.6538457 -0.446538E+02  0.120E-01    2.21       0.0  T
   2    -44.6538466 -0.860440E-06  0.708E-02    2.21       1.0  T
   3    -44.6538459  0.693010E-06  0.534E-03    2.21       3.2  T
   4    -44.6538470 -0.108543E-05  0.146E-03    2.21      11.5  T
   5    -44.6538470 -0.945789E-09  0.850E-04    2.21      19.9  T
   6    -44.6538470 -0.119505E-07  0.337E-04    2.21      50.2  T
     SCC iter.                  ...        0 min,  0.005 sec
     gradient                   ...        0 min,  0.003 sec
 * total energy  :   -43.8739796 Eh     change       -0.1589872E-03 Eh
   gradient norm :     0.0063499 Eh/α   predicted    -0.1248558E-03 ( -21.47%)
   displ. norm   :     0.3519724 α      lambda       -0.2260261E-03
   maximum displ.:     0.2693719 α      in ANC's #5, #4, #2, ...

........................................................................
.............................. CYCLE   53 ..............................
........................................................................

 iter      E             dE          RMSdq      gap      omega  full diag
   1    -44.6526482 -0.446526E+02  0.103E-01    2.20       0.0  T
   2    -44.6526491 -0.885482E-06  0.604E-02    2.20       1.0  T
   3    -44.6526488  0.338696E-06  0.432E-03    2.20       3.9  T
   4    -44.6526494 -0.586072E-06  0.131E-03    2.20      12.9  T
   5    -44.6526494 -0.206893E-07  0.703E-04    2.20      24.1  T
   6    -44.6526494 -0.112904E-08  0.323E-04    2.20      52.4  T
     SCC iter.                  ...        0 min,  0.005 sec
     gradient                   ...        0 min,  0.003 sec
 * total energy  :   -43.8741470 Eh     change       -0.1673866E-03 Eh
   gradient norm :     0.0059968 Eh/α   predicted    -0.1270163E-03 ( -24.12%)
   displ. norm   :     0.2916399 α      lambda       -0.2412366E-03
   maximum displ.:     0.2258247 α      in ANC's #5, #2, #8, ...

........................................................................
.............................. CYCLE   54 ..............................
........................................................................

 iter      E             dE          RMSdq      gap      omega  full diag
   1    -44.6544803 -0.446545E+02  0.894E-02    2.20       0.0  T
   2    -44.6544812 -0.841732E-06  0.525E-02    2.20       1.0  T
   3    -44.6544806  0.536693E-06  0.458E-03    2.20       3.7  T
   4    -44.6544813 -0.712593E-06  0.142E-03    2.20      11.9  T
   5    -44.6544814 -0.516310E-07  0.752E-04    2.20      22.5  T
   6    -44.6544814 -0.614019E-08  0.366E-04    2.20      46.2  T
     SCC iter.                  ...        0 min,  0.005 sec
     gradient                   ...        0 min,  0.003 sec
 * total energy  :   -43.8743273 Eh     change       -0.1802793E-03 Eh
   gradient norm :     0.0047611 Eh/α   predicted    -0.1308776E-03 ( -27.40%)
   displ. norm   :     0.4138128 α      lambda       -0.2161900E-03
   maximum displ.:     0.3317845 α      in ANC's #5, #2, #4, ...

........................................................................
.............................. CYCLE   55 ..............................
........................................................................

 iter      E             dE          RMSdq      gap      omega  full diag
   1    -44.6531612 -0.446532E+02  0.124E-01    2.20       0.0  T
   2    -44.6531621 -0.912298E-06  0.731E-02    2.20       1.0  T
   3    -44.6531574  0.471834E-05  0.112E-02    2.20       1.5  T
   4    -44.6531627 -0.529639E-05  0.202E-03    2.20       8.4  T
   5    -44.6531628 -0.829304E-07  0.968E-04    2.20      17.5  T
   6    -44.6531628 -0.244362E-08  0.381E-04    2.20      44.4  T
     SCC iter.                  ...        0 min,  0.005 sec
     gradient                   ...        0 min,  0.003 sec
 * total energy  :   -43.8744734 Eh     change       -0.1461238E-03 Eh
   gradient norm :     0.0068693 Eh/α   predicted    -0.1266069E-03 ( -13.36%)
   displ. norm   :     0.3566199 α      lambda       -0.3620181E-03
   maximum displ.:     0.2292325 α      in ANC's #5, #2, #3, ...

........................................................................
.............................. CYCLE   56 ..............................
........................................................................

 iter      E             dE          RMSdq      gap      omega  full diag
   1    -44.6611518 -0.446612E+02  0.120E-01    2.20       0.0  T
   2    -44.6611564 -0.459946E-05  0.705E-02    2.20       1.0  T
   3    -44.6611438  0.125781E-04  0.180E-02    2.20       1.0  T
   4    -44.6611572 -0.133520E-04  0.465E-03    2.20       3.6  T
   5    -44.6611579 -0.758480E-06  0.128E-03    2.20      13.2  T
   6    -44.6611579 -0.448691E-08  0.687E-04    2.20      24.6  T
   7    -44.6611579 -0.373637E-08  0.201E-04    2.20      84.2  T
     SCC iter.                  ...        0 min,  0.006 sec
     gradient                   ...        0 min,  0.003 sec
 * total energy  :   -43.8745620 Eh     change       -0.8853626E-04 Eh
   gradient norm :     0.0075906 Eh/α   predicted    -0.2040208E-03 ( 130.44%)
   displ. norm   :     0.3408629 α      lambda       -0.2678889E-03
   maximum displ.:     0.2848040 α      in ANC's #5, #4, #2, ...

........................................................................
.............................. CYCLE   57 ..............................
........................................................................

 iter      E             dE          RMSdq      gap      omega  full diag
   1    -44.6556352 -0.446556E+02  0.101E-01    2.20       0.0  T
   2    -44.6556370 -0.180188E-05  0.594E-02    2.20       1.0  T
   3    -44.6556344  0.259689E-05  0.893E-03    2.20       1.9  T
   4    -44.6556373 -0.286300E-05  0.288E-03    2.20       5.9  T
   5    -44.6556375 -0.249958E-06  0.109E-03    2.20      15.6  T
   6    -44.6556375 -0.423074E-08  0.607E-04    2.20      27.9  T
   7    -44.6556375 -0.674656E-08  0.872E-05    2.20     193.9  T
     SCC iter.                  ...        0 min,  0.006 sec
     gradient                   ...        0 min,  0.003 sec
 * total energy  :   -43.8747041 Eh     change       -0.1421182E-03 Eh
   gradient norm :     0.0064599 Eh/α   predicted    -0.1495038E-03 (   5.20%)
   displ. norm   :     0.0929858 α      lambda       -0.1276932E-03
   maximum displ.:     0.0485991 α      in ANC's #2, #8, #9, ...

........................................................................
.............................. CYCLE   58 ..............................
........................................................................

 iter      E             dE          RMSdq      gap      omega  full diag
   1    -44.6565440 -0.446565E+02  0.283E-02    2.20       0.0  T
   2    -44.6565444 -0.367019E-06  0.165E-02    2.20       1.0  T
   3    -44.6565439  0.499918E-06  0.414E-03    2.20       4.1  T
   4    -44.6565445 -0.545715E-06  0.124E-03    2.20      13.7  T
   5    -44.6565445 -0.531576E-07  0.463E-04    2.20      36.5  T
   6    -44.6565445 -0.160530E-08  0.222E-04    2.20      76.3  T
     SCC iter.                  ...        0 min,  0.005 sec
     gradient                   ...        0 min,  0.003 sec
 * total energy  :   -43.8747901 Eh     change       -0.8607666E-04 Eh
   gradient norm :     0.0039743 Eh/α   predicted    -0.6440552E-04 ( -25.18%)
   displ. norm   :     0.2310789 α      lambda       -0.1512150E-03
   maximum displ.:     0.1840786 α      in ANC's #5, #9, #4, ...

........................................................................
.............................. CYCLE   59 ..............................
........................................................................

 iter      E             dE          RMSdq      gap      omega  full diag
   1    -44.6562356 -0.446562E+02  0.675E-02    2.20       0.0  T
   2    -44.6562360 -0.440774E-06  0.397E-02    2.19       1.0  T
   3    -44.6562354  0.677633E-06  0.449E-03    2.19       3.8  T
   4    -44.6562362 -0.831890E-06  0.121E-03    2.19      14.0  T
   5    -44.6562362 -0.249105E-07  0.576E-04    2.19      29.4  T
   6    -44.6562362 -0.376541E-08  0.252E-04    2.19      67.2  T
     SCC iter.                  ...        0 min,  0.005 sec
     gradient                   ...        0 min,  0.003 sec
 * total energy  :   -43.8748875 Eh     change       -0.9739958E-04 Eh
   gradient norm :     0.0037016 Eh/α   predicted    -0.7964387E-04 ( -18.23%)
   displ. norm   :     0.2083694 α      lambda       -0.1012524E-03
   maximum displ.:     0.1605786 α      in ANC's #5, #2, #9, ...

........................................................................
.............................. CYCLE   60 ..............................
........................................................................

 iter      E             dE          RMSdq      gap      omega  full diag
   1    -44.6580037 -0.446580E+02  0.637E-02    2.19       0.0  T
   2    -44.6580043 -0.551445E-06  0.374E-02    2.19       1.0  T
   3    -44.6580040  0.281586E-06  0.352E-03    2.19       4.8  T
   4    -44.6580044 -0.387633E-06  0.121E-03    2.19      13.9  T
   5    -44.6580044 -0.352071E-07  0.586E-04    2.19      28.8  T
   6    -44.6580044 -0.230483E-08  0.223E-04    2.19      75.7  T
     SCC iter.                  ...        0 min,  0.005 sec
     gradient                   ...        0 min,  0.003 sec
 * total energy  :   -43.8749472 Eh     change       -0.5966916E-04 Eh
   gradient norm :     0.0032691 Eh/α   predicted    -0.5282493E-04 ( -11.47%)
   displ. norm   :     0.1464316 α      lambda       -0.6027075E-04
   maximum displ.:     0.1053646 α      in ANC's #5, #2, #3, ...

........................................................................
.............................. CYCLE   61 ..............................
........................................................................

 iter      E             dE          RMSdq      gap      omega  full diag
   1    -44.6593420 -0.446593E+02  0.434E-02    2.19       0.0  T
   2    -44.6593422 -0.236641E-06  0.255E-02    2.19       1.0  T
[...]
H22-C3-C4=108.96               H22-C3-C8=109.43               C5-C4-C3=123.02                H23-C4-C3=116.06               
H23-C4-C5=120.80               C6-C5-C4=120.62                H24-C5-C4=120.19               H24-C5-C6=119.17               
C7-C6-C5=119.18                H25-C6-C5=120.49               H25-C6-C7=120.21               C8-C7-C6=122.83                
H26-C7-C6=118.19               H26-C7-C8=118.93               C7-C8-C3=120.30                C9-C8-C3=120.94                
C9-C8-C7=118.76                C10-C9-C8=111.19               C11-C9-C8=112.12               C11-C9-C10=114.33              
H27-C9-C8=106.22               H27-C9-C10=106.16              H27-C9-C11=106.16              H28-C10-C9=111.73              
H29-C10-C9=109.25              H29-C10-H28=108.35             H30-C10-C9=110.29              H30-C10-H28=108.90             
H30-C10-H29=108.23             

 selected dihedral angles (degree)
 ---------------------------------
C3-C2-C1-H17= 62.28           C3-C2-C1-H18=302.46           C3-C2-C1-H19=181.80           H20-C2-C1-H17=301.92          
H20-C2-C1-H18=182.10          H20-C2-C1-H19= 61.43          H21-C2-C1-H17=184.75          H21-C2-C1-H18= 64.93          
H21-C2-C1-H19=304.26          C4-C3-C2-C1=230.93            C4-C3-C2-H20=351.52           C4-C3-C2-H21=107.55           
C8-C3-C2-C1=106.98            C8-C3-C2-H20=227.58           C8-C3-C2-H21=343.60           H22-C3-C2-C1=347.54           
H22-C3-C2-H20=108.14          H22-C3-C2-H21=224.16          C5-C4-C3-C2=250.74            C5-C4-C3-C8= 14.79            
C5-C4-C3-H22=136.03           H23-C4-C3-C2= 66.61           H23-C4-C3-C8=190.66           H23-C4-C3-H22=311.91          
C6-C5-C4-C3=354.60            C6-C5-C4-H23=178.92           H24-C5-C4-C3=176.07           H24-C5-C4-H23=  0.38          
C7-C6-C5-C4=354.82            C7-C6-C5-H24=173.37           H25-C6-C5-C4=178.93           H25-C6-C5-H24=357.48          
C8-C7-C6-C5=  4.86            C8-C7-C6-H25=180.76           H26-C7-C6-C5=187.30           H26-C7-C6-H25=  3.20          
C7-C8-C3-C2=106.83            C7-C8-C3-C4=345.24            C7-C8-C3-H22=224.27           C9-C8-C3-C2=287.35            
C9-C8-C3-C4=165.75            C9-C8-C3-H22= 44.78           C3-C8-C7-C6=  5.91            C3-C8-C7-H26=183.46           
C9-C8-C7-C6=185.41            C9-C8-C7-H26=  2.95           C10-C9-C8-C3= 91.14           C10-C9-C8-C7=271.65           
C11-C9-C8-C3=321.75           C11-C9-C8-C7=142.26           H27-C9-C8-C3=206.21           H27-C9-C8-C7= 26.72           
H28-C10-C9-C8=290.45          H28-C10-C9-C11= 58.66         H28-C10-C9-H27=175.34         H29-C10-C9-C8= 50.33          
H29-C10-C9-C11=178.54         H29-C10-C9-H27=295.23         H30-C10-C9-C8=169.17          H30-C10-C9-C11=297.39         
H30-C10-C9-H27= 54.07         
           -------------------------------------------------
          |                Final Singlepoint                |
           -------------------------------------------------

          ...................................................
          :                      SETUP                      :
          :.................................................:
          :  # basis functions                  83          :
          :  # atomic orbitals                  83          :
          :  # shells                           51          :
          :  # electrons                        83          :
          :  max. iterations                   250          :
          :  Hamiltonian                  GFN2-xTB          :
          :  restarted?                      false          :
          :  GBSA solvation                  false          :
          :  PC potential                    false          :
          :  electronic temp.          300.0000000     K    :
          :  accuracy                    1.0000000          :
          :  -> integral cutoff          0.2500000E+02      :
          :  -> integral neglect         0.1000000E-07      :
          :  -> SCF convergence          0.1000000E-05 Eh   :
          :  -> wf. convergence          0.1000000E-03 e    :
          :  Broyden damping             0.4000000          :
          :  net charge                          0          :
          :  unpaired electrons                  0          :
          ...................................................

 iter      E             dE          RMSdq      gap      omega  full diag
   1    -44.6585425 -0.446585E+02  0.295E-05    2.19       0.0  T
   2    -44.6585425 -0.844125E-11  0.197E-05    2.19     857.8  T
   3    -44.6585425 -0.827072E-11  0.108E-05    2.19    1564.7  T

   *** convergence criteria satisfied after 3 iterations ***

         #    Occupation            Energy/Eh            Energy/eV
      -------------------------------------------------------------
         1        2.0000           -0.6433072             -17.5053
       ...           ...                  ...                  ...
        36        2.0000           -0.4181633             -11.3788
        37        2.0000           -0.4098037             -11.1513
        38        2.0000           -0.4072613             -11.0821
        39        2.0000           -0.4001410             -10.8884
        40        2.0000           -0.3919770             -10.6662
        41        2.0000           -0.3867575             -10.5242
        42        1.0000           -0.3003856              -8.1739 (HOMO)
        43                         -0.2197290              -5.9791 (LUMO)
        44                         -0.2186265              -5.9491
        45                         -0.2039184              -5.5489
        46                         -0.1232303              -3.3533
        47                         -0.0904626              -2.4616
       ...                                ...                  ...
        83                          0.6686249              18.1942
      -------------------------------------------------------------
                  HL-Gap            0.0806566 Eh            2.1948 eV
             Fermi-level           -0.3018144 Eh           -8.2128 eV

 SCC (total)                   0 d,  0 h,  0 min,  0.007 sec
 SCC setup                      ...        0 min,  0.000 sec (  0.744%)
 Dispersion                     ...        0 min,  0.000 sec (  1.324%)
 classical contributions        ...        0 min,  0.000 sec (  0.317%)
 integral evaluation            ...        0 min,  0.001 sec ( 14.058%)
 iterations                     ...        0 min,  0.003 sec ( 36.692%)
 molecular gradient             ...        0 min,  0.003 sec ( 43.452%)
 printout                       ...        0 min,  0.000 sec (  3.290%)

         :::::::::::::::::::::::::::::::::::::::::::::::::::::
         ::                     SUMMARY                     ::
         :::::::::::::::::::::::::::::::::::::::::::::::::::::
         :: total energy             -43.875119513307 Eh    ::
         :: gradient norm              0.000457808879 Eh/a0 ::
         :: HOMO-LUMO gap              2.194778758169 eV    ::
         ::.................................................::
         :: SCC energy               -44.657817416250 Eh    ::
         :: -> isotropic ES            0.004386239892 Eh    ::
         :: -> anisotropic ES          0.008257192404 Eh    ::
         :: -> anisotropic XC          0.028638651843 Eh    ::
         :: -> dispersion             -0.036954679089 Eh    ::
         :: repulsion energy           0.782697902943 Eh    ::
         :: add. restraining           0.000000000000 Eh    ::
         :: total charge              -0.000000000000 e     ::
         :::::::::::::::::::::::::::::::::::::::::::::::::::::

           -------------------------------------------------
          |                Property Printout                |
           -------------------------------------------------

    * Orbital Energies and Occupations

         #    Occupation            Energy/Eh            Energy/eV
      -------------------------------------------------------------
         1        2.0000           -0.6433072             -17.5053
       ...           ...                  ...                  ...
        30        2.0000           -0.4497872             -12.2393
        31        2.0000           -0.4463531             -12.1459
        32        2.0000           -0.4418427             -12.0232
        33        2.0000           -0.4363137             -11.8727
        34        2.0000           -0.4293623             -11.6835
        35        2.0000           -0.4219425             -11.4816
        36        2.0000           -0.4181633             -11.3788
        37        2.0000           -0.4098037             -11.1513
        38        2.0000           -0.4072613             -11.0821
        39        2.0000           -0.4001410             -10.8884
        40        2.0000           -0.3919770             -10.6662
        41        2.0000           -0.3867575             -10.5242
        42        1.0000           -0.3003856              -8.1739 (HOMO)
        43                         -0.2197290              -5.9791 (LUMO)
        44                         -0.2186265              -5.9491
        45                         -0.2039184              -5.5489
        46                         -0.1232303              -3.3533
        47                         -0.0904626              -2.4616
        48                          0.0669685               1.8223
        49                          0.0754465               2.0530
        50                          0.0930234               2.5313
        51                          0.1017962               2.7700
        52                          0.1192691               3.2455
        53                          0.1222084               3.3255
       ...                                ...                  ...
        83                          0.6686249              18.1942
      -------------------------------------------------------------
                  HL-Gap            0.0806566 Eh            2.1948 eV
             Fermi-level           -0.3018144 Eh           -8.2128 eV

     #   Z          covCN         q      C6AA      α(0)
     1   6 C        3.751    -0.101    22.495     6.764
     2   6 C        3.802    -0.049    21.455     6.595
     3   6 C        3.858    -0.018    20.863     6.496
     4   6 C        2.912    -0.044    29.083     8.843
     5   6 C        2.903    -0.035    28.860     8.809
     6   6 C        2.915    -0.045    29.112     8.848
     7   6 C        2.910    -0.041    29.016     8.833
     8   6 C        2.958    -0.002    28.084     8.692
     9   6 C        3.862    -0.022    20.922     6.505
    10   6 C        3.753    -0.099    22.456     6.757
    11   6 C        2.969     0.013    27.716     8.635
    12   6 C        2.927    -0.038    28.939     8.822
    13   6 C        2.919    -0.031    28.771     8.796
    14   6 C        2.920    -0.034    28.842     8.807
    15   6 C        2.920    -0.032    28.798     8.800
    16   6 C        2.923    -0.039    28.976     8.828
    17   1 H        0.925     0.032     2.556     2.500
    18   1 H        0.925     0.040     2.445     2.445
    19   1 H        0.925     0.032     2.556     2.500
    20   1 H        0.924     0.035     2.523     2.484
    21   1 H        0.925     0.038     2.478     2.462
    22   1 H        0.923     0.052     2.290     2.367
    23   1 H        0.926     0.023     2.687     2.563
    24   1 H        0.926     0.024     2.673     2.557
    25   1 H        0.926     0.023     2.695     2.567
    26   1 H        0.925     0.021     2.714     2.576
    27   1 H        0.923     0.043     2.404     2.425
    28   1 H        0.925     0.043     2.412     2.429
    29   1 H        0.925     0.035     2.517     2.481
    30   1 H        0.925     0.035     2.514     2.480
    31   1 H        0.925     0.027     2.622     2.532
    32   1 H        0.926     0.027     2.626     2.534
    33   1 H        0.926     0.027     2.634     2.538
    34   1 H        0.926     0.026     2.639     2.540
    35   1 H        0.926     0.032     2.553     2.499

 Mol. C6AA /au·bohr⁶  :      12648.271893
 Mol. C8AA /au·bohr⁸  :     299384.482138
 Mol. α(0) /au        :        177.308095


Wiberg/Mayer (AO) data.
largest (>0.10) Wiberg bond orders for each atom

 ---------------------------------------------------------------------------
     #   Z sym  total        # sym  WBO       # sym  WBO       # sym  WBO
 ---------------------------------------------------------------------------
     1   6 C    3.996 --     2 C    1.022    17 H    0.987    19 H    0.984
                            18 H    0.980
     2   6 C    3.990 --     1 C    1.022    20 H    0.976    21 H    0.976
                             3 C    0.921
     3   6 C    3.995 --     4 C    1.036     8 C    1.028    22 H    0.930
                             2 C    0.921
     4   6 C    3.923 --     5 C    1.634     3 C    1.036    23 H    0.971
     5   6 C    3.992 --     4 C    1.634     6 C    1.303    24 H    0.968
     6   6 C    3.877 --     7 C    1.339     5 C    1.303    25 H    0.974
     7   6 C    3.991 --     8 C    1.570     6 C    1.339    26 H    0.965
     8   6 C    3.911 --     7 C    1.570     3 C    1.028     9 C    0.994
     9   6 C    3.994 --    11 C    0.995     8 C    0.994    10 C    0.987
                            27 H    0.945
    10   6 C    3.996 --     9 C    0.987    29 H    0.986    30 H    0.984
                            28 H    0.982
    11   6 C    3.988 --    16 C    1.421    12 C    1.397     9 C    0.995
                            14 C    0.110
    12   6 C    3.992 --    13 C    1.457    11 C    1.397    31 H    0.969
                            15 C    0.112
    13   6 C    3.992 --    12 C    1.457    14 C    1.428    32 H    0.971
                            16 C    0.108
    14   6 C    3.992 --    15 C    1.448    13 C    1.428    33 H    0.972
                            11 C    0.110
    15   6 C    3.992 --    14 C    1.448    16 C    1.432    34 H    0.971
                            12 C    0.112
    16   6 C    3.991 --    15 C    1.432    11 C    1.421    35 H    0.966
                            13 C    0.108
    17   1 H    0.999 --     1 C    0.987
    18   1 H    0.998 --     1 C    0.980
    19   1 H    0.998 --     1 C    0.984
    20   1 H    0.999 --     2 C    0.976
    21   1 H    0.999 --     2 C    0.976
    22   1 H    0.996 --     3 C    0.930
    23   1 H    0.999 --     4 C    0.971
    24   1 H    0.999 --     5 C    0.968
    25   1 H    0.999 --     6 C    0.974
    26   1 H    0.999 --     7 C    0.965
    27   1 H    0.998 --     9 C    0.945
    28   1 H    0.998 --    10 C    0.982
    29   1 H    0.998 --    10 C    0.986
    30   1 H    0.997 --    10 C    0.984
    31   1 H    0.999 --    12 C    0.969
    32   1 H    0.999 --    13 C    0.971
    33   1 H    0.999 --    14 C    0.972
    34   1 H    0.999 --    15 C    0.971
    35   1 H    0.999 --    16 C    0.966
 ---------------------------------------------------------------------------

Topologies differ in total number of bonds
Writing topology from bond orders to xtbtopo.mol

molecular dipole:
                 x           y           z       tot (Debye)
 q only:       -0.058       0.354      -0.006
   full:       -0.070       0.344       0.010       0.893
molecular quadrupole (traceless):
                xx          xy          yy          xz          yz          zz
 q only:       -0.758       0.989       0.175       1.470      -1.192       0.584
  q+dip:       -3.278      -1.059       0.825       1.347       0.356       2.452
   full:       -1.378       0.471       0.147       1.636      -0.711       1.231

           -------------------------------------------------
          |                Geometry Summary                 |
           -------------------------------------------------

      molecular mass/u    :      211.3226486
   center of mass at/Å    :       -0.1247426      -0.1942144       0.0745012
  moments of inertia/u·Å² :        0.5764429E+03   0.1351124E+04   0.1382668E+04
rotational constants/cm⁻¹ :        0.2924423E-01   0.1247675E-01   0.1219210E-01

 * 31 selected distances

     #   Z          #   Z                                           value/Å
     1   6 C        2   6 C                                       1.5221299
     4   6 C        5   6 C                                       1.3536882
     5   6 C        6   6 C                                       1.4034128
     6   6 C        7   6 C                                       1.3978758
     7   6 C        8   6 C                                       1.3651648
     9   6 C       10   6 C                                       1.5349576 (max)
    11   6 C       12   6 C                                       1.3936974
    12   6 C       13   6 C                                       1.3813350
    13   6 C       14   6 C                                       1.3855359
    14   6 C       15   6 C                                       1.3822354
    11   6 C       16   6 C                                       1.3878103
    15   6 C       16   6 C                                       1.3860237
     1   6 C       17   1 H                                       1.0883183
     1   6 C       18   1 H                                       1.0868324
     1   6 C       19   1 H                                       1.0887419
     2   6 C       20   1 H                                       1.0922521
     2   6 C       21   1 H                                       1.0900577
     3   6 C       22   1 H                                       1.0986033
     4   6 C       23   1 H                                       1.0802875
     5   6 C       24   1 H                                       1.0810742
     6   6 C       25   1 H                                       1.0782783 (min)
     7   6 C       26   1 H                                       1.0831621
     9   6 C       27   1 H                                       1.0996850
    10   6 C       28   1 H                                       1.0856584
    10   6 C       29   1 H                                       1.0881164
    10   6 C       30   1 H                                       1.0882415
    12   6 C       31   1 H                                       1.0815637
    13   6 C       32   1 H                                       1.0805087
    14   6 C       33   1 H                                       1.0799949
    15   6 C       34   1 H                                       1.0807094
    16   6 C       35   1 H                                       1.0791756

 * 2 distinct bonds (by element types)

   Z      Z             #   av. dist./Å        max./Å        min./Å
   1 H    6 C          19     1.0858559     1.0996850     1.0782783
   6 C    6 C          12     1.4078222     1.5349576     1.3536882


optimized geometry written to: xtbopt.xyz


           -------------------------------------------------
          | TOTAL ENERGY              -43.875119513307 Eh   |
          | GRADIENT NORM               0.000457808879 Eh/α |
          | HOMO-LUMO GAP               2.194778758169 eV   |
           -------------------------------------------------

------------------------------------------------------------------------
 * finished run on 2025/09/15 at 14:21:08.397     
------------------------------------------------------------------------
 total:
 * wall-time:     0 d,  0 h,  0 min,  0.767 sec
 *  cpu-time:     0 d,  0 h,  0 min,  3.048 sec
 * ratio c/w:     3.975 speedup
 SCF:
 * wall-time:     0 d,  0 h,  0 min,  0.026 sec
 *  cpu-time:     0 d,  0 h,  0 min,  0.099 sec
 * ratio c/w:     3.841 speedup
 ANC optimizer:
 * wall-time:     0 d,  0 h,  0 min,  0.722 sec
 *  cpu-time:     0 d,  0 h,  0 min,  2.888 sec
 * ratio c/w:     4.000 speedup

