35
 energy: -43.858134569129 gnorm: 0.071826153345 xtb: 6.7.1 (edcfbbe)
C            1.94400000000000        2.10410000000000       -0.11160000000000
C            2.44690000000000        0.67840000000000       -0.00440000000000
C            1.36690000000000       -0.41430000000000        0.17350000000000
C            2.14410000000000       -1.70880000000000        0.44910000000000
C            2.33820000000000       -2.64580000000000       -0.49170000000000
C            1.75170000000000       -2.42270000000000       -1.78860000000000
C            0.62500000000000       -1.53470000000000       -1.94550000000000
C            0.38570000000000       -0.58490000000000       -1.01120000000000
C           -0.97620000000000        0.12370000000000       -1.03070000000000
C           -0.97540000000000        1.43140000000000       -1.83090000000000
C           -1.66070000000000        0.18890000000000        0.33270000000000
C           -2.13000000000000       -1.00630000000000        0.91030000000000
C           -2.75610000000000       -1.00760000000000        2.15800000000000
C           -2.92410000000000        0.18640000000000        2.85230000000000
C           -2.46430000000000        1.37890000000000        2.29950000000000
C           -1.83670000000000        1.38120000000000        1.05020000000000
H            1.15170000000000        2.31060000000000        0.61240000000000
H            1.58940000000000        2.31270000000000       -1.12240000000000
H            2.76470000000000        2.80390000000000        0.08060000000000
H            3.12540000000000        0.64110000000000        0.85960000000000
H            3.06760000000000        0.46310000000000       -0.88470000000000
H            0.80070000000000       -0.20870000000000        1.08810000000000
H            2.57740000000000       -1.83240000000000        1.43730000000000
H            2.90890000000000       -3.54790000000000       -0.30600000000000
H            2.01220000000000       -3.08940000000000       -2.60310000000000
H           -0.05570000000000       -1.72980000000000       -2.76800000000000
H           -1.65100000000000       -0.52050000000000       -1.61920000000000
H           -0.50050000000000        2.25900000000000       -1.30400000000000
H           -0.46720000000000        1.30630000000000       -2.79340000000000
H           -2.00470000000000        1.74580000000000       -2.04220000000000
H           -1.99930000000000       -1.95160000000000        0.38600000000000
H           -3.10880000000000       -1.94180000000000        2.58660000000000
H           -3.41050000000000        0.18790000000000        3.82390000000000
H           -2.59220000000000        2.31210000000000        2.84200000000000
H           -1.48720000000000        2.33180000000000        0.65840000000000
35
 energy: -43.867324387263 gnorm: 0.032264170460 xtb: 6.7.1 (edcfbbe)
C            1.94073990449571        2.10664525004593       -0.11671906856450
C            2.43695675996171        0.67306553905917       -0.00639121111636
C            1.34934140058609       -0.41445213081341        0.18154463016632
C            2.11117718193208       -1.69582894843339        0.44511366695264
C            2.33277098431731       -2.61515184467596       -0.51598276495244
C            1.72461532190761       -2.44512833027759       -1.78470113394927
C            0.64227704274005       -1.54136326779814       -1.91602117465208
C            0.37464035491454       -0.60038392394903       -0.97221568628720
C           -0.97816360325684        0.10910941469071       -1.02631952897653
C           -0.97511955983091        1.42929576113915       -1.80938526681450
C           -1.63363563321964        0.18910490175954        0.34358779582222
C           -2.10881310630981       -0.99454940147642        0.91197347611436
C           -2.74034400548674       -0.99736662750841        2.14564635794560
C           -2.91367934841082        0.18904580593118        2.83923566023597
C           -2.45462487792220        1.37272206473246        2.28729814309755
C           -1.82029718367043        1.37285498285168        1.05165525015256
H            1.15469336193324        2.30678790840835        0.60924633432075
H            1.57036656582033        2.31455796741007       -1.11760830240849
H            2.76192003193247        2.79881371663850        0.07758785569595
H            3.10536459118992        0.60870188510611        0.86050337638494
H            3.03966308465207        0.43209317770410       -0.88819379763242
H            0.77768038872556       -0.16877963239882        1.08347185048345
H            2.54579491575269       -1.80767923926520        1.43004355776012
H            2.92483736989959       -3.50172427983428       -0.33561536612454
H            1.98137179265861       -3.10634288687053       -2.59970233092159
H           -0.00521329501718       -1.68018653418087       -2.77560976550605
H           -1.62852819647673       -0.55764940578270       -1.61501678918339
H           -0.48934631666333        2.24663264296085       -1.28438139363727
H           -0.46512506836012        1.28834775224376       -2.76303936455400
H           -2.00164019283991        1.73523570068267       -2.02278560872771
H           -1.98597070932081       -1.93060964269705        0.38082985987954
H           -3.09852206348108       -1.92786237719851        2.56684503362458
H           -3.40374979685002        0.19060049013305        3.80451771717869
H           -2.58767685384649        2.30348482101417        2.82352300522344
H           -1.48386124245640        2.31805869064889        0.64996498296969
35
 energy: -43.869755521187 gnorm: 0.009109215273 xtb: 6.7.1 (edcfbbe)
C            1.93800565130382        2.10075040851160       -0.11673375361373
C            2.42112808005345        0.66033406092968       -0.00973167163682
C            1.31711319909563       -0.41887022537058        0.19447373021720
C            2.07776805410440       -1.68414781040026        0.45374749744971
C            2.32095628425676       -2.58678978164445       -0.52529872994210
C            1.70753658511980       -2.44894626521564       -1.78087892574539
C            0.66888776288791       -1.52349479243919       -1.91607028585521
C            0.37218143818479       -0.59452878929651       -0.95904815907395
C           -0.97888969577349        0.09875804343061       -1.02486877080094
C           -0.97452631120889        1.42157241781437       -1.80068543391745
C           -1.62663177786370        0.18682417429897        0.34137978327839
C           -2.09288396842610       -0.99329524657330        0.91164225861536
C           -2.72084956329552       -0.99605748678737        2.14130890920752
C           -2.89778850848233        0.18969401582882        2.83260725090790
C           -2.43740456397884        1.36894594725422        2.27898104130249
C           -1.80879589363158        1.36777638369034        1.04528820946918
H            1.15976898258002        2.30125686211985        0.61547517857555
H            1.55803176482229        2.30753066495716       -1.11163175606991
H            2.76548288165504        2.78236027259192        0.07265427803941
H            3.08733013214281        0.58148966094366        0.85424921645387
H            3.00454375512450        0.40101112767134       -0.89668895335062
H            0.75000833036718       -0.13151142847869        1.09079495399906
H            2.52147212064468       -1.78857832230711        1.43278188321897
H            2.94854935141735       -3.45043263168107       -0.34781024470079
H            1.94555939101233       -3.12596288152446       -2.58536335114114
H            0.02889019446148       -1.62850941614702       -2.78595812332964
H           -1.61369639772758       -0.57828808971767       -1.61438706868784
H           -0.48262104596997        2.22348444257649       -1.26440752742000
H           -0.46366675689272        1.27847978721223       -2.75066153283461
H           -2.00028707544401        1.72415010642270       -2.00352399112519
H           -1.96478666117735       -1.92413593759216        0.37817918529677
H           -3.08500483476611       -1.92377386296134        2.55759171519141
H           -3.39657986472041        0.19412538913773        3.79063380171916
H           -2.57735437512484        2.30113119351078        2.80681054911430
H           -1.47154666475051        2.30774800923437        0.63804883718922
35
 energy: -43.870161229638 gnorm: 0.006450786872 xtb: 6.7.1 (edcfbbe)
C            1.93791285543614        2.09546679739034       -0.11329236378526
C            2.41349018202843        0.65286442231140       -0.01000563590440
C            1.29833600204934       -0.42065220378672        0.20200272002522
C            2.06413990829683       -1.68041679475428        0.46423095634073
C            2.32063978712504       -2.57408270349840       -0.52094064160829
C            1.70467378257361       -2.44427057395844       -1.77673039255462
C            0.67429721932759       -1.51347883981839       -1.92186192844295
C            0.36453521833692       -0.59353981273685       -0.95743477962073
C           -0.98474068745289        0.09424793074078       -1.03041725550736
C           -0.97869487372845        1.41812607291168       -1.80376819195861
C           -1.62577118887164        0.18336999837958        0.33655321584566
C           -2.08562797405273       -0.99803940001425        0.91119162678108
C           -2.71179141358617       -0.99868049397046        2.14191450924595
C           -2.89006286434876        0.18991975433048        2.82994087956006
C           -2.42986235819665        1.36904091912949        2.27410535355307
C           -1.80258081771198        1.36636438302177        1.03932640956988
H            1.16751574834378        2.30034089922537        0.62664758945129
H            1.55082088912240        2.30405017940141       -1.10516733207030
H            2.77195849883312        2.77074216438090        0.06856237155086
H            3.08626348413105        0.56816718473347        0.84733128748537
H            2.98186085900213        0.38554204527181       -0.90372213954248
H            0.73519195062549       -0.11877754041026        1.09571196021282
H            2.50711137848599       -1.78561870027838        1.44289837717143
H            2.96005267289557       -3.42784742349460       -0.33937557607445
H            1.93420714698178       -3.13222384742580       -2.57460969924963
H            0.04682586460818       -1.58969340201209       -2.80635573004716
H           -1.61860367797466       -0.58438836382272       -1.61772594288117
H           -0.48017247556665        2.21177933811405       -1.26153170626566
H           -0.47014447555200        1.27708444632077       -2.75479285033757
H           -2.00347392026876        1.72687234704581       -1.99946480496164
H           -1.95193168664162       -1.92861457428466        0.37808213423274
H           -3.07024373085613       -1.92660431220536        2.56233875959240
H           -3.38606812460927        0.19585751607929        3.78895618290214
H           -2.56533133554627        2.30217994514912        2.80155777062885
H           -1.46483184323830        2.30501264253410        0.62874486666296
35
 energy: -43.870359545024 gnorm: 0.003520971051 xtb: 6.7.1 (edcfbbe)
C            1.93996321032519        2.09144015508631       -0.10741736679492
C            2.40576702972111        0.64606875142269       -0.01208094830596
C            1.28130191678597       -0.42153513928028        0.20843009151928
C            2.04706215749055       -1.68079106847282        0.47623964147166
C            2.31507289863793       -2.56661176640527       -0.51220604721461
C            1.71062301339436       -2.43269577348579       -1.77392800127000
C            0.68355866222288       -1.50045874444262       -1.93164055222743
C            0.35875318099956       -0.59067528960240       -0.96052679517405
C           -0.99138528983491        0.09126720259100       -1.03773283813620
C           -0.98519425312420        1.41544771729161       -1.81040388222352
C           -1.62998524967566        0.18062250024580        0.32953852287212
C           -2.08023595242443       -1.00268803515016        0.91060637209511
C           -2.69917532548502       -1.00181389796943        2.14555837354351
C           -2.87727843977638        0.18929401366051        2.83056574139863
C           -2.42117230985227        1.36885737237985        2.27114325944234
C           -1.80162454409881        1.36549450377875        1.03179631699133
H            1.17978469688939        2.30199181767524        0.64225921979763
H            1.54320836857575        2.30457937321677       -1.09486340548385
H            2.78176628009288        2.76006219229719        0.06498795691873
H            3.08696502151850        0.55342075841262        0.83734010004152
H            2.95902538895543        0.37324573064017       -0.91303683990986
H            0.71929442810059       -0.11060936606972        1.09768740205648
H            2.48532692744381       -1.78831603213604        1.45659498213049
H            2.96110135343581       -3.41330272255472       -0.32637845010151
H            1.93781563365624       -3.12896677382965       -2.56548453834857
H            0.06359162515019       -1.56444898891931       -2.81867663593659
H           -1.62565329774865       -0.58813232904186       -1.62362093514736
H           -0.47878496220106        2.20358723635865       -1.26701034001349
H           -0.48228288379059        1.27548527653920       -2.76456011719548
H           -2.00932823868949        1.73138821801906       -1.99882407287787
H           -1.94152806602793       -1.93366053898550        0.37843276120525
H           -3.05065057249590       -1.93021939571971        2.57156149956364
H           -3.37035195987132        0.19674587018047        3.79119159396956
H           -2.55218729223830        2.30294513368663        2.79870235822823
H           -1.46326315606048        2.30308203858270        0.61865557311616
35
 energy: -43.870488482050 gnorm: 0.003685831203 xtb: 6.7.1 (edcfbbe)
C            1.94343839541832        2.08848520239300       -0.10039163660160
C            2.40006734054698        0.64031613195508       -0.01527553388950
C            1.26884333094568       -0.42108617413777        0.21174152691215
C            2.03004441809467       -1.68253320803278        0.48664161856780
C            2.30988409228617       -2.56226980102557       -0.50326485648515
C            1.71974419383276       -2.42067760580323       -1.77202220402730
C            0.68998858276712       -1.49248952538416       -1.93734765834497
C            0.35340115047384       -0.58954991986269       -0.96367635725502
C           -0.99799192904248        0.08912219210856       -1.04417719505777
C           -0.99241959618813        1.41224174473366       -1.81863192805406
C           -1.63490958253498        0.17896235050377        0.32402308529887
C           -2.07675271221241       -1.00538715770118        0.91080304063544
C           -2.68675345873401       -1.00360763688748        2.15057991094722
C           -2.86367636223216        0.18896891947663        2.83359560760938
C           -2.41428861959780        1.36903319463357        2.26955824510005
C           -1.80363272033342        1.36509067334308        1.02535541788303
H            1.19418830644215        2.30382148934546        0.65936567433070
H            1.53585440435424        2.30794028307696       -1.08237581829749
H            2.79248848549640        2.75085445267224        0.06256964885999
H            3.08986692239181        0.53969507931749        0.82630277015335
H            2.94037595808422        0.36574707942215       -0.92300568603951
H            0.70598919917096       -0.10395488911783        1.09632964435257
H            2.45566424497737       -1.79472084801116        1.47213554394066
H            2.95359444715862       -3.40824142956726       -0.31249850972326
H            1.95540142657191       -3.11490825181692       -2.56245675661872
H            0.08208384635307       -1.54573041728462       -2.83245850600884
H           -1.63259598147557       -0.59137332393984       -1.62908904806619
H           -0.47790949473280        2.19806393954090       -1.27912462908674
H           -0.49764521615524        1.27079846328774       -2.77712525218704
H           -2.01646563799137        1.73400030584353       -1.99951042355274
H           -1.93590839668990       -1.93696489759747        0.37971319244140
H           -3.03001155905027       -1.93258400325871        2.58279070075875
H           -3.35000223904364        0.19701803652039        3.79792272435907
H           -2.54172349690518        2.30371646031179        2.79735212325095
H           -1.46833174244594        2.30230309094260        0.60855152389511
35
 energy: -43.870657692108 gnorm: 0.005000974381 xtb: 6.7.1 (edcfbbe)
C            1.94995394380875        2.08462720489080       -0.08797978239522
C            2.39267454414335        0.63163865432486       -0.02107878069042
C            1.25255776449344       -0.41879678030376        0.21417170294244
C            2.00140626134732       -1.68579993828496        0.50117343608857
C            2.29944893733402       -2.55762489545047       -0.48972660780354
C            1.73655768910224       -2.40100432389568       -1.77088295052437
C            0.70194579338336       -1.47922972052131       -1.94603083887099
C            0.34644061064702       -0.58704758312911       -0.96919481221670
C           -1.00816545965161        0.08553339398810       -1.05347717021225
C           -1.00486011468902        1.40651165097702       -1.83131388242934
C           -1.64163368746038        0.17701722269856        0.31675943334307
C           -2.07149863078007       -1.00782898508429        0.91185166316744
C           -2.66639308820019       -1.00488381572528        2.15922019468467
C           -2.84047818265709        0.18909818153087        2.84025955279623
C           -2.40483766769223        1.36992484132688        2.26709561997185
C           -1.80883181220999        1.36487210916775        1.01542465930088
H            1.21877478440622        2.30528262573852        0.68821251815605
H            1.52373416699451        2.31551192543873       -1.05994395101623
H            2.80976575885999        2.73713664978466        0.06035924217835
H            3.09526674892116        0.51732201887292        0.80852795769509
H            2.91456025460302        0.35730459884567       -0.93914051022422
H            0.68748484449539       -0.09167703768451        1.09192687164490
H            2.40185789873870       -1.80698010743536        1.49681223101726
H            2.93637491625259       -3.40658662938768       -0.29240441731802
H            1.99375703585902       -3.08490624876533       -2.56369581207850
H            0.10948776962790       -1.52716636595996       -2.84906081707652
H           -1.64159210317924       -0.59829207333428       -1.63688812709383
H           -0.47676489134300        2.19062907485326       -1.30167359296861
H           -0.52478328421853        1.25981947529157       -2.79702294978980
H           -2.02920515871434        1.73553091581778       -1.99955650936709
H           -1.93106094053916       -1.94039680363052        0.38230872784803
H           -2.99781032405082       -1.93430651405276        2.60037587550329
H           -3.31344033683949        0.19751459592088        3.81169359550355
H           -2.52898041437281        2.30544988052852        2.79434524836183
H           -1.48181362641852        2.30190280264783        0.59145298187310
35
 energy: -43.870781896036 gnorm: 0.004142966604 xtb: 6.7.1 (edcfbbe)
C            1.95662107108234        2.08113729148607       -0.07433206859025
C            2.38652678136883        0.62334774583477       -0.02627565169643
C            1.23867155862902       -0.41527153385256        0.21473360150487
C            1.97210123346289       -1.68858668966493        0.51344360997699
C            2.28831812139537       -2.55342685914841       -0.47774744985183
C            1.75339426937689       -2.38168254104720       -1.76999830476127
C            0.71354622961570       -1.46678575297842       -1.95236111982941
C            0.34001829244011       -0.58445031131749       -0.97394777244610
C           -1.01802706265059        0.08143057211652       -1.06188498310616
C           -1.01831487211724        1.39946390415926       -1.84420231748870
C           -1.64795636436698        0.17555134105157        0.30994485947837
C           -2.06618668048116       -1.00892853642244        0.91322821842991
C           -2.64443647775172       -1.00487651513200        2.16834817138087
C           -2.81461813301352        0.19002171568688        2.84833901604539
C           -2.39538767153994        1.37146645606326        2.26423018658272
C           -1.81550626814651        1.36512978402615        1.00502516776021
H            1.24342431764338        2.30389746935276        0.71778186323856
H            1.51169796723558        2.32344879831319       -1.03525671348557
H            2.82549155734654        2.72446411711885        0.06011724210473
H            3.09967136991958        0.49547721273443        0.79245118592175
H            2.89316965304168        0.35208252812534       -0.95346035304078
H            0.67136790655406       -0.07743689780724        1.08663436660885
H            2.34438224802570       -1.82012201729881        1.51937249989797
H            2.91448224186551       -3.40951493944608       -0.27493975105171
H            2.03648414123744       -3.05039799057076       -2.56799826801348
H            0.13679925209240       -1.51258951816810       -2.86617299963403
H           -1.64863163917615       -0.60721442009808       -1.64309231262774
H           -0.47659676032292        2.18250683118185       -1.32612501777433
H           -0.55359794956318        1.24591232759969       -2.81663902895667
H           -2.04301058019362        1.73424013581383       -1.99902134855404
H           -1.92824072033451       -1.94277180205488        0.38566625523133
H           -2.96529908942553       -1.93424545663449        2.61726474569947
H           -3.27227443492621        0.19868484087578        3.82736805140502
H           -2.51911497373927        2.30804176461705        2.78946361476566
H           -1.49906853458197        2.30209694548457        0.57294280487719
35
 energy: -43.870833135006 gnorm: 0.002336582063 xtb: 6.7.1 (edcfbbe)
C            1.95949293166665        2.07947123362924       -0.06503606614108
C            2.38398134639057        0.61951872298848       -0.02719857370599
C            1.23260127246737       -0.41251850104948        0.21365657506421
C            1.95612859545494       -1.68948596366860        0.51768565581316
C            2.28137446263910       -2.55120401955376       -0.47311760804662
C            1.76165411870727       -2.37149920179738       -1.76984440210139
C            0.72063064932686       -1.45851184056119       -1.95600562180187
C            0.33748200372170       -0.58171281205175       -0.97715113199181
C           -1.02312434273326        0.07855963005889       -1.06648787006950
C           -1.02656305771596        1.39470804141605       -1.85167310594254
C           -1.65007154453236        0.17475440466700        0.30628555201492
C           -2.06206849242141       -1.00888625290833        0.91425119029034
C           -2.63082707999315       -1.00382362359729        2.17330832313694
C           -2.79876407622608        0.19161291946472        2.85271853294324
C           -2.39022837148565        1.37308223651448        2.26139270095711
C           -1.81935201664484        1.36553520350426        0.99857568285667
H            1.25622280546427        2.30053880539088        0.73555469748019
H            1.50418753578477        2.32740103524018       -1.01905903019462
H            2.83177633778451        2.71864769527234        0.06207126017008
H            3.10032251679260        0.48438919594587        0.78700671144321
H            2.88540814530919        0.35203864696655       -0.95809121659263
H            0.66416408923880       -0.06938605828931        1.08316582541972
H            2.31287593549561       -1.82723039399641        1.52772878612133
H            2.89999669367244       -3.41327800390322       -0.26875207303413
H            2.05851862906148       -3.03092634762197       -2.57060799383426
H            0.14854344460861       -1.50991061025215       -2.87233444382446
H           -1.65086156349142       -0.61413904572205       -1.64559451663825
H           -0.47758460292823        2.17712466310233       -1.34050144165669
H           -0.57052432613424        1.23681858951663       -2.82713484856776
H           -2.05134363495195        1.73163245525502       -1.99851590034601
H           -1.92681522302772       -1.94373833577723        0.38815684918793
H           -2.94566923417797       -1.93297962358763        2.62619885312949
H           -3.24574292050223        0.20054064236283        3.83642876982267
H           -2.51496919498666        2.31041051352954        2.78473305321645
H           -1.51095183163131        2.30254599951237        0.56108682542357
35
 energy: -43.870849611793 gnorm: 0.000711147506 xtb: 6.7.1 (edcfbbe)
C            1.95929054781478        2.07904683850899       -0.05922035283251
C            2.38307082598488        0.61856303530904       -0.02577612663540
C            1.23057964212438       -0.41141640511067        0.21288382242241
C            1.95013671259961       -1.68980606715704        0.51812287380087
C            2.27856616483127       -2.55042629949029       -0.47273811579598
C            1.76392764737669       -2.36822569342851       -1.77027808091145
C            0.72299634792096       -1.45514033161867       -1.95754859689009
C            0.33673237227071       -0.58036961072651       -0.97877657163309
C           -1.02504053100610        0.07691833419121       -1.06868270853392
C           -1.03055504839011        1.39200953678671       -1.85556927835070
C           -1.65078622583265        0.17449047151238        0.30411086675611
C           -2.05918322457812       -1.00864774621808        0.91503546952238
C           -2.62308590015651       -1.00273571431336        2.17608409517388
C           -2.79032472790246        0.19329532399026        2.85466741032536
C           -2.38753385122154        1.37458203100409        2.25922833586221
C           -1.82135449230017        1.36614549929116        0.99460491009862
H            1.26118393600427        2.29834115909133        0.74609949886927
H            1.49795287104493        2.32830252164947       -1.00964303623703
H            2.83267002149525        2.71722085158099        0.06346308792317
H            3.09931135005713        0.48074000365998        0.78768691873232
H            2.88440333559799        0.35355035634124       -0.95760989710342
H            0.66164655051888       -0.06706873553420        1.08190262621891
H            2.30130348662251       -1.83032705393130        1.52884129067656
H            2.89437494144469       -3.41509751553622       -0.26888812452430
H            2.06393259530521       -3.02479758415487       -2.57149067398575
H            0.15222337383360       -1.50881616922297       -2.87618875390190
H           -1.65114521752505       -0.61816204410151       -1.64613039576335
H           -0.47839628966400        2.17385266954630       -1.34722960480292
H           -0.57849178319798        1.23205008495316       -2.83214986213768
H           -2.05540139616087        1.72962154719562       -1.99835958848403
H           -1.92475712987789       -1.94429664259346        0.39022616123475
H           -2.93508564387027       -1.93173292361068        2.63083061862225
H           -3.23262712445314        0.20288385006897        3.84007280414455
H           -2.51369465550479        2.31257772715760        2.78095455705116
H           -1.51693948120361        2.30297469490981        0.55436442109051
35
 energy: -43.870861967304 gnorm: 0.001233355053 xtb: 6.7.1 (edcfbbe)
C            1.95710626682345        2.07912820961583       -0.05206775579994
C            2.38206110796587        0.61875859539790       -0.02206321976632
C            1.22926503359425       -0.41132200352169        0.21190954252290
C            1.94749202759050       -1.69023939079781        0.51676970396035
C            2.27708731166946       -2.55014224277147       -0.47464282100872
C            1.76433932608718       -2.36695162636391       -1.77228038969095
C            0.72435094848645       -1.45238276805448       -1.96012632120754
C            0.33677208420396       -0.57893858280494       -0.98118732088773
C           -1.02618408905921        0.07544577210651       -1.07105468748288
C           -1.03413145925442        1.38953654514655       -1.85972251502503
C           -1.65015869387544        0.17437272167784        0.30203391120677
C           -2.05474519619500       -1.00830869900436        0.91628520905249
C           -2.61500452549179       -1.00113066140054        2.17884987980016
C           -2.78285688278010        0.19591491303150        2.85563087865944
C           -2.38534842644356        1.37687830232356        2.25614655584466
C           -1.82250238881623        1.36718260946404        0.99026521037245
H            1.26445087907804        2.29675553988524        0.75836972436188
H            1.48877741790162        2.32813345300575       -0.99888209526858
H            2.83095615271070        2.71768888445437        0.06491932770062
H            3.09666715670915        0.47929141190191        0.79245621573782
H            2.88590086750928        0.35666963289801       -0.95372136584255
H            0.65920770276830       -0.06803354482013        1.08079951177720
H            2.29547165267912       -1.83334446485242        1.52767908323802
H            2.89124569403645       -3.41630707318990       -0.27171319925392