      -----------------------------------------------------------      
     |                   =====================                   |     
     |                           x T B                           |     
     |                   =====================                   |     
     |                         S. Grimme                         |     
     |          Mulliken Center for Theoretical Chemistry        |     
     |                    University of Bonn                     |     
      -----------------------------------------------------------      

   * xtb version 6.7.1 (edcfbbe) compiled by 'conda@c0858423619e' on 2025-09-04

   xtb is free software: you can redistribute it and/or modify it under
   the terms of the GNU Lesser General Public License as published by
   the Free Software Foundation, either version 3 of the License, or
   (at your option) any later version.
   
   xtb is distributed in the hope that it will be useful,
   but WITHOUT ANY WARRANTY; without even the implied warranty of
   MERCHANTABILITY or FITNESS FOR A PARTICULAR PURPOSE.  See the
   GNU Lesser General Public License for more details.
   
   Cite this work as:
   * C. Bannwarth, E. Caldeweyher, S. Ehlert, A. Hansen, P. Pracht,
     J. Seibert, S. Spicher, S. Grimme, WIREs Comput. Mol. Sci., 2020, 11,
     e01493. DOI: 10.1002/wcms.1493
   
   for GFN2-xTB:
   * C. Bannwarth, S. Ehlert and S. Grimme., J. Chem. Theory Comput., 2019,
     15, 1652-1671. DOI: 10.1021/acs.jctc.8b01176
   for GFN1-xTB:
   * S. Grimme, C. Bannwarth, P. Shushkov, J. Chem. Theory Comput., 2017,
     13, 1989-2009. DOI: 10.1021/acs.jctc.7b00118
   for GFN0-xTB:
   * P. Pracht, E. Caldeweyher, S. Ehlert, S. Grimme, ChemRxiv, 2019, preprint.
     DOI: 10.26434/chemrxiv.8326202.v1
   for GFN-FF:
   * S. Spicher and S. Grimme, Angew. Chem. Int. Ed., 2020, 59, 15665-15673.
     DOI: 10.1002/anie.202004239
   
   for ALPB and GBSA implicit solvation:
   * S. Ehlert, M. Stahn, S. Spicher, S. Grimme, J. Chem. Theory Comput.,
     2021, 17, 4250-4261. DOI: 10.1021/acs.jctc.1c00471
   
   for ddCOSMO and CPCM-X implicit solvation:
   * M. Stahn, S. Ehlert, S. Grimme, J. Phys. Chem. A,
     2023, XX, XXXX-XXXX. DOI: 10.1021/acs.jpca.3c04382
   
   for DFT-D4:
   * E. Caldeweyher, C. Bannwarth and S. Grimme, J. Chem. Phys., 2017,
     147, 034112. DOI: 10.1063/1.4993215
   * E. Caldeweyher, S. Ehlert, A. Hansen, H. Neugebauer, S. Spicher,
     C. Bannwarth and S. Grimme, J. Chem. Phys., 2019, 150, 154122.
     DOI: 10.1063/1.5090222
   * E. Caldeweyher, J.-M. Mewes, S. Ehlert and S. Grimme, Phys. Chem. Chem. Phys.
     2020, 22, 8499-8512. DOI: 10.1039/D0CP00502A
   
   for sTDA-xTB:
   * S. Grimme and C. Bannwarth, J. Chem. Phys., 2016, 145, 054103.
     DOI: 10.1063/1.4959605
   
   in the mass-spec context:
   * V. Asgeirsson, C. Bauer and S. Grimme, Chem. Sci., 2017, 8, 4879.
     DOI: 10.1039/c7sc00601b
   * J. Koopman and S. Grimme, ACS Omega 2019, 4, 12, 15120-15133.
     DOI: 10.1021/acsomega.9b02011
   
   for metadynamics refer to:
   * S. Grimme, J. Chem. Theory Comput., 2019, 155, 2847-2862
     DOI: 10.1021/acs.jctc.9b00143
   
   for SPH calculations refer to:
   * S. Spicher and S. Grimme, J. Chem. Theory Comput., 2021, 17, 1701-1714
     DOI: 10.1021/acs.jctc.0c01306
   
   for ONIOM refer to:
   * C. Plett, A. Katbashev, S. Ehlert, S. Grimme, M. Bursch,
     Phys. Chem. Chem. Phys., 2023, 25, 17860-17868. DOI: 10.1039/D3CP02178E
   
   for DIPRO refer to:
   * J. Kohn, N. Gildemeister, S. Grimme, D. Fazzi, A. Hansen,
     J. Chem. Phys., 2023, just accepted.
   
   for PTB refer to:
   * S. Grimme, M. Mueller, A. Hansen, J. Chem. Phys., 2023, 158, 124111.
     DOI: 10.1063/5.0137838
   
   with help from (in alphabetical order)
   P. Atkinson, C. Bannwarth, F. Bohle, G. Brandenburg, E. Caldeweyher
   M. Checinski, S. Dohm, S. Ehlert, S. Ehrlich, I. Gerasimov, C. Hölzer
   A. Katbashev, J. Kohn, J. Koopman, C. Lavigne, S. Lehtola, F. März, M. Müller,
   F. Musil, H. Neugebauer, J. Pisarek, C. Plett, P. Pracht, F. Pultar,
   J. Seibert, P. Shushkov, S. Spicher, M. Stahn, M. Steiner, T. Strunk,
   J. Stückrath, T. Rose, and J. Unsleber
   
 * started run on 2025/09/15 at 14:52:51.534     
   ID    Z sym.   atoms
    1    6 C      1-16
    2    1 H      17-35

           -------------------------------------------------
          |                Calculation Setup                |
           -------------------------------------------------

          program call               : /home/paufv/miniforge3/envs/htvs/bin/xtb gfn_opt.xyz --opt normal --parallel 4 --chrg 0 --uhf 0 --gfn2 --input xtb.inp
          coordinate file            : gfn_opt.xyz
          omp threads                :                     4

########################################################################
[WARNING] Please study the warnings concerning your input carefully
-3- set_opt: the key 'uhf' is not recognized by opt
-2- set_opt: the key 'charge' is not recognized by opt
-1- set_opt: the key 'method' is not recognized by opt
########################################################################

           -------------------------------------------------
          |                 G F N 2 - x T B                 |
           -------------------------------------------------

        Reference                      10.1021/acs.jctc.8b01176
      * Hamiltonian:
        H0-scaling (s, p, d)           1.850000    2.230000    2.230000
        zeta-weighting                 0.500000
      * Dispersion:
        s8                             2.700000
        a1                             0.520000
        a2                             5.000000
        s9                             5.000000
      * Repulsion:
        kExp                           1.500000    1.000000
        rExp                           1.000000
      * Coulomb:
        alpha                          2.000000
        third order                    shell-resolved
        anisotropic                    true
        a3                             3.000000
        a5                             4.000000
        cn-shift                       1.200000
        cn-exp                         4.000000
        max-rad                        5.000000


          ...................................................
          :                      SETUP                      :
          :.................................................:
          :  # basis functions                  83          :
          :  # atomic orbitals                  83          :
          :  # shells                           51          :
          :  # electrons                        83          :
          :  max. iterations                   250          :
          :  Hamiltonian                  GFN2-xTB          :
          :  restarted?                      false          :
          :  GBSA solvation                  false          :
          :  PC potential                    false          :
          :  electronic temp.          300.0000000     K    :
          :  accuracy                    1.0000000          :
          :  -> integral cutoff          0.2500000E+02      :
          :  -> integral neglect         0.1000000E-07      :
          :  -> SCF convergence          0.1000000E-05 Eh   :
          :  -> wf. convergence          0.1000000E-03 e    :
          :  Broyden damping             0.4000000          :
          :  net charge                          0          :
          :  unpaired electrons                  0          :
          ...................................................

 iter      E             dE          RMSdq      gap      omega  full diag
   1    -44.5551572 -0.445552E+02  0.350E+00    2.38       0.0  T
   2    -44.6006001 -0.454428E-01  0.203E+00    2.26       1.0  T
   3    -44.5953075  0.529261E-02  0.718E-01    2.24       1.0  T
   4    -44.5963400 -0.103258E-02  0.449E-01    2.18       1.0  T
   5    -44.6037480 -0.740794E-02  0.675E-02    2.21       1.0  T
   6    -44.6038114 -0.633949E-04  0.386E-02    2.22       1.0  T
   7    -44.6038255 -0.141331E-04  0.163E-02    2.22       1.0  T
   8    -44.6038273 -0.183806E-05  0.419E-03    2.22       4.0  T
   9    -44.6038277 -0.374804E-06  0.124E-03    2.22      13.7  T
  10    -44.6038277 -0.145021E-07  0.679E-04    2.22      24.9  T
  11    -44.6038277 -0.807494E-08  0.249E-04    2.22      67.9  T

   *** convergence criteria satisfied after 11 iterations ***

         #    Occupation            Energy/Eh            Energy/eV
      -------------------------------------------------------------
         1        2.0000           -0.6348466             -17.2751
       ...           ...                  ...                  ...
        36        2.0000           -0.4119166             -11.2088
        37        2.0000           -0.4103017             -11.1649
        38        2.0000           -0.4044191             -11.0048
        39        2.0000           -0.3946831             -10.7399
        40        2.0000           -0.3900013             -10.6125
        41        2.0000           -0.3882352             -10.5644
        42        1.0000           -0.2995412              -8.1509 (HOMO)
        43                         -0.2179736              -5.9314 (LUMO)
        44                         -0.2177495              -5.9253
        45                         -0.2000497              -5.4436
        46                         -0.1358503              -3.6967
        47                         -0.0930780              -2.5328
       ...                                ...                  ...
        83                          0.6383193              17.3696
      -------------------------------------------------------------
                  HL-Gap            0.0815676 Eh            2.2196 eV
             Fermi-level           -0.3013228 Eh           -8.1994 eV

 SCC (total)                   0 d,  0 h,  0 min,  0.027 sec
 SCC setup                      ...        0 min,  0.000 sec (  0.361%)
 Dispersion                     ...        0 min,  0.000 sec (  1.045%)
 classical contributions        ...        0 min,  0.000 sec (  0.155%)
 integral evaluation            ...        0 min,  0.002 sec (  6.018%)
 iterations                     ...        0 min,  0.020 sec ( 74.668%)
 molecular gradient             ...        0 min,  0.005 sec ( 16.679%)
 printout                       ...        0 min,  0.000 sec (  1.041%)

         :::::::::::::::::::::::::::::::::::::::::::::::::::::
         ::                     SUMMARY                     ::
         :::::::::::::::::::::::::::::::::::::::::::::::::::::
         :: total energy             -43.864880132303 Eh    ::
         :: gradient norm              0.071476416825 Eh/a0 ::
         :: HOMO-LUMO gap              2.219568259476 eV    ::
         ::.................................................::
         :: SCC energy               -44.602968760809 Eh    ::
         :: -> isotropic ES            0.004255968213 Eh    ::
         :: -> anisotropic ES          0.010383646098 Eh    ::
         :: -> anisotropic XC          0.029616619596 Eh    ::
         :: -> dispersion             -0.036581151399 Eh    ::
         :: repulsion energy           0.738088628506 Eh    ::
         :: add. restraining           0.000000000000 Eh    ::
         :: total charge               0.000000000000 e     ::
         :::::::::::::::::::::::::::::::::::::::::::::::::::::

      ----------------------------------------------------------- 
     |                   =====================                   |
     |                        A N C O P T                        |
     |                   =====================                   |
     |               Approximate Normal Coordinate               |
     |                Rational Function Optimizer                |
      ----------------------------------------------------------- 
      ----------------------------------------------------------- 
     |                   =====================                   |
     |                        A N C O P T                        |
     |                   =====================                   |
     |               Approximate Normal Coordinate               |
     |                Rational Function Optimizer                |
      ----------------------------------------------------------- 

          ...................................................
          :                      SETUP                      :
          :.................................................:
          :   optimization level            normal          :
          :   max. optcycles                   200          :
          :   ANC micro-cycles                  20          :
          :   degrees of freedom                99          :
          :.................................................:
          :   RF solver                   davidson          :
          :   write xtbopt.log                true          :
          :   linear?                        false          :
          :   energy convergence         0.5000000E-05 Eh   :
          :   grad. convergence          0.1000000E-02 Eh/α :
          :   maxmium RF displ.          1.0000000          :
          :   Hlow (freq-cutoff)         0.1000000E-01      :
          :   Hmax (freq-cutoff)         5.0000000          :
          :   S6 in model hess.         20.0000000          :
          ...................................................

generating ANC from exact Hessian ...
Using Lindh-Hessian (1995)
 Shifting diagonal of input Hessian by    9.5115766818482349E-003
 Lowest  eigenvalues of input Hessian
    0.000000    0.000000    0.000000    0.000000    0.000000    0.000000
    0.010000    0.010308    0.010641    0.011745    0.011986    0.013477
    0.014047    0.015914    0.016280    0.017218    0.017990    0.018959
 Highest eigenvalues
    1.688720    1.822660    1.825968    1.896316    1.929369    1.940483


........................................................................
.............................. CYCLE    1 ..............................
........................................................................

 iter      E             dE          RMSdq      gap      omega  full diag
   1    -44.6038277 -0.446038E+02  0.977E-05    2.22       0.0  T
   2    -44.6038277 -0.425402E-10  0.614E-05    2.22     275.2  T
   3    -44.6038277 -0.287628E-10  0.411E-05    2.22     411.1  T
     SCC iter.                  ...        0 min,  0.003 sec
     gradient                   ...        0 min,  0.003 sec
 * total energy  :   -43.8648801 Eh     change       -0.1099444E-08 Eh
   gradient norm :     0.0714754 Eh/α   predicted     0.0000000E+00 (-100.00%)
   displ. norm   :     0.3426842 α      lambda       -0.1219921E-01
   maximum displ.:     0.1541706 α      in ANC's #16, #20, #6, ...

........................................................................
.............................. CYCLE    2 ..............................
........................................................................

 iter      E             dE          RMSdq      gap      omega  full diag
   1    -44.6431738 -0.446432E+02  0.224E-01    2.27       0.0  T
   2    -44.6431896 -0.157885E-04  0.135E-01    2.27       1.0  T
   3    -44.6431248  0.647987E-04  0.429E-02    2.25       1.0  T
   4    -44.6431985 -0.737115E-04  0.694E-03    2.26       2.4  T
   5    -44.6431997 -0.121476E-05  0.298E-03    2.26       5.7  T
   6    -44.6431998 -0.797447E-07  0.130E-03    2.26      13.0  T
   7    -44.6431998 -0.223126E-07  0.453E-04    2.26      37.4  T
   8    -44.6431998 -0.429284E-08  0.161E-04    2.26     105.3  T
     SCC iter.                  ...        0 min,  0.007 sec
     gradient                   ...        0 min,  0.003 sec
 * total energy  :   -43.8733156 Eh     change       -0.8435480E-02 Eh
   gradient norm :     0.0320067 Eh/α   predicted    -0.6817677E-02 ( -19.18%)
   displ. norm   :     0.3398186 α      lambda       -0.4128968E-02
   maximum displ.:     0.1694963 α      in ANC's #16, #6, #2, ...

........................................................................
.............................. CYCLE    3 ..............................
........................................................................

 iter      E             dE          RMSdq      gap      omega  full diag
   1    -44.6629156 -0.446629E+02  0.181E-01    2.26       0.0  T
   2    -44.6629246 -0.901440E-05  0.108E-01    2.27       1.0  T
   3    -44.6628971  0.275080E-04  0.285E-02    2.26       1.0  T
   4    -44.6629289 -0.317916E-04  0.457E-03    2.26       3.7  T
   5    -44.6629294 -0.461769E-06  0.201E-03    2.26       8.4  T
   6    -44.6629294 -0.314536E-07  0.998E-04    2.26      16.9  T
   7    -44.6629294 -0.201786E-07  0.283E-04    2.26      59.7  T
     SCC iter.                  ...        0 min,  0.006 sec
     gradient                   ...        0 min,  0.003 sec
 * total energy  :   -43.8757526 Eh     change       -0.2436956E-02 Eh
   gradient norm :     0.0092155 Eh/α   predicted    -0.2302885E-02 (  -5.50%)
   displ. norm   :     0.2403034 α      lambda       -0.8163044E-03
   maximum displ.:     0.1283317 α      in ANC's #2, #6, #16, ...

........................................................................
.............................. CYCLE    4 ..............................
........................................................................

 iter      E             dE          RMSdq      gap      omega  full diag
   1    -44.6627924 -0.446628E+02  0.985E-02    2.25       0.0  T
   2    -44.6627936 -0.119206E-05  0.582E-02    2.25       1.0  T
   3    -44.6627792  0.143909E-04  0.179E-02    2.25       1.0  T
   4    -44.6627952 -0.159636E-04  0.201E-03    2.25       8.4  T
   5    -44.6627952 -0.801239E-07  0.897E-04    2.25      18.8  T
   6    -44.6627952 -0.587762E-08  0.343E-04    2.25      49.3  T
     SCC iter.                  ...        0 min,  0.005 sec
     gradient                   ...        0 min,  0.003 sec
 * total energy  :   -43.8763362 Eh     change       -0.5836783E-03 Eh
   gradient norm :     0.0065431 Eh/α   predicted    -0.4317509E-03 ( -26.03%)
   displ. norm   :     0.2745940 α      lambda       -0.5159342E-03
   maximum displ.:     0.1782588 α      in ANC's #2, #6, #3, ...

........................................................................
.............................. CYCLE    5 ..............................
........................................................................

 iter      E             dE          RMSdq      gap      omega  full diag
   1    -44.6616244 -0.446616E+02  0.857E-02    2.24       0.0  T
   2    -44.6616254 -0.100464E-05  0.502E-02    2.24       1.0  T
   3    -44.6616207  0.472679E-05  0.109E-02    2.24       1.6  T
   4    -44.6616260 -0.534989E-05  0.186E-03    2.24       9.1  T
   5    -44.6616261 -0.658733E-07  0.923E-04    2.24      18.3  T
   6    -44.6616261 -0.127706E-07  0.313E-04    2.24      54.0  T
     SCC iter.                  ...        0 min,  0.005 sec
     gradient                   ...        0 min,  0.003 sec
 * total energy  :   -43.8766905 Eh     change       -0.3542834E-03 Eh
   gradient norm :     0.0046212 Eh/α   predicted    -0.2774194E-03 ( -21.70%)
   displ. norm   :     0.2028434 α      lambda       -0.2282040E-03
   maximum displ.:     0.1508266 α      in ANC's #2, #3, #6, ...

........................................................................
.............................. CYCLE    6 ..............................
........................................................................

 iter      E             dE          RMSdq      gap      omega  full diag
   1    -44.6614795 -0.446615E+02  0.528E-02    2.24       0.0  T
   2    -44.6614798 -0.375457E-06  0.309E-02    2.24       1.0  T
   3    -44.6614790  0.851464E-06  0.479E-03    2.24       3.5  T
   4    -44.6614800 -0.101647E-05  0.973E-04    2.24      17.4  T
   5    -44.6614800 -0.142271E-07  0.585E-04    2.24      28.9  T
   6    -44.6614800 -0.585767E-08  0.187E-04    2.24      90.4  T
     SCC iter.                  ...        0 min,  0.005 sec
     gradient                   ...        0 min,  0.003 sec
 * total energy  :   -43.8768740 Eh     change       -0.1834890E-03 Eh
   gradient norm :     0.0042119 Eh/α   predicted    -0.1187975E-03 ( -35.26%)
   displ. norm   :     0.1917902 α      lambda       -0.1989635E-03
   maximum displ.:     0.1474434 α      in ANC's #2, #3, #6, ...

........................................................................
.............................. CYCLE    7 ..............................
........................................................................

 iter      E             dE          RMSdq      gap      omega  full diag
   1    -44.6619973 -0.446620E+02  0.567E-02    2.25       0.0  T
   2    -44.6619976 -0.263308E-06  0.333E-02    2.25       1.0  T
   3    -44.6619971  0.501264E-06  0.366E-03    2.25       4.6  T
   4    -44.6619977 -0.616246E-06  0.856E-04    2.25      19.8  T
   5    -44.6619977 -0.115039E-07  0.494E-04    2.25      34.2  T
     SCC iter.                  ...        0 min,  0.004 sec
     gradient                   ...        0 min,  0.003 sec
 * total energy  :   -43.8770431 Eh     change       -0.1690522E-03 Eh
   gradient norm :     0.0034764 Eh/α   predicted    -0.1031419E-03 ( -38.99%)
   displ. norm   :     0.2172156 α      lambda       -0.1959811E-03
   maximum displ.:     0.1673743 α      in ANC's #2, #3, #5, ...

........................................................................
.............................. CYCLE    8 ..............................
........................................................................

 iter      E             dE          RMSdq      gap      omega  full diag
   1    -44.6624913 -0.446625E+02  0.734E-02    2.26       0.0  T
   2    -44.6624916 -0.383982E-06  0.431E-02    2.26       1.0  T
   3    -44.6624910  0.631295E-06  0.423E-03    2.26       4.0  T
   4    -44.6624918 -0.790054E-06  0.997E-04    2.26      17.0  T
   5    -44.6624918 -0.149863E-07  0.550E-04    2.26      30.7  T
     SCC iter.                  ...        0 min,  0.004 sec
     gradient                   ...        0 min,  0.003 sec
 * total energy  :   -43.8772061 Eh     change       -0.1630529E-03 Eh
   gradient norm :     0.0024350 Eh/α   predicted    -0.1026146E-03 ( -37.07%)
   displ. norm   :     0.2145242 α      lambda       -0.1538340E-03
   maximum displ.:     0.1662845 α      in ANC's #2, #3, #5, ...

........................................................................
.............................. CYCLE    9 ..............................
........................................................................

 iter      E             dE          RMSdq      gap      omega  full diag
   1    -44.6628117 -0.446628E+02  0.741E-02    2.26       0.0  T
   2    -44.6628120 -0.376230E-06  0.436E-02    2.26       1.0  T
   3    -44.6628108  0.122458E-05  0.583E-03    2.26       2.9  T
   4    -44.6628122 -0.142846E-05  0.100E-03    2.26      16.9  T
   5    -44.6628122 -0.161147E-07  0.526E-04    2.26      32.1  T
   6    -44.6628123 -0.377014E-08  0.225E-04    2.26      75.0  T
     SCC iter.                  ...        0 min,  0.005 sec
     gradient                   ...        0 min,  0.003 sec
 * total energy  :   -43.8773336 Eh     change       -0.1274357E-03 Eh
   gradient norm :     0.0022073 Eh/α   predicted    -0.8045738E-04 ( -36.86%)
   displ. norm   :     0.1821682 α      lambda       -0.1100976E-03
   maximum displ.:     0.1428491 α      in ANC's #2, #3, #5, ...

........................................................................
.............................. CYCLE   10 ..............................
........................................................................

 iter      E             dE          RMSdq      gap      omega  full diag
   1    -44.6630457 -0.446630E+02  0.631E-02    2.27       0.0  T
   2    -44.6630460 -0.256370E-06  0.371E-02    2.27       1.0  T
   3    -44.6630447  0.125838E-05  0.585E-03    2.27       2.9  T
   4    -44.6630461 -0.143002E-05  0.826E-04    2.27      20.5  T
   5    -44.6630461 -0.106533E-07  0.422E-04    2.27      40.0  T
   6    -44.6630461 -0.188236E-08  0.191E-04    2.27      88.5  T
     SCC iter.                  ...        0 min,  0.005 sec
     gradient                   ...        0 min,  0.003 sec
 * total energy  :   -43.8774267 Eh     change       -0.9315958E-04 Eh
   gradient norm :     0.0020586 Eh/α   predicted    -0.5687836E-04 ( -38.95%)
   displ. norm   :     0.1582114 α      lambda       -0.8580880E-04
   maximum displ.:     0.1258847 α      in ANC's #2, #3, #5, ...

........................................................................
.............................. CYCLE   11 ..............................
........................................................................

 iter      E             dE          RMSdq      gap      omega  full diag
   1    -44.6633000 -0.446633E+02  0.519E-02    2.27       0.0  T
   2    -44.6633002 -0.168867E-06  0.305E-02    2.27       1.0  T
   3    -44.6632995  0.696886E-06  0.438E-03    2.27       3.9  T
   4    -44.6633003 -0.801991E-06  0.695E-04    2.27      24.3  T
   5    -44.6633003 -0.699032E-08  0.350E-04    2.27      48.3  T
     SCC iter.                  ...        0 min,  0.004 sec
     gradient                   ...        0 min,  0.003 sec
 * total energy  :   -43.8774989 Eh     change       -0.7219417E-04 Eh
   gradient norm :     0.0016126 Eh/α   predicted    -0.4397966E-04 ( -39.08%)
   displ. norm   :     0.2030305 α      lambda       -0.6311931E-04
   maximum displ.:     0.1661833 α      in ANC's #2, #5, #6, ...

........................................................................
.............................. CYCLE   12 ..............................
........................................................................

 iter      E             dE          RMSdq      gap      omega  full diag
   1    -44.6633133 -0.446633E+02  0.620E-02    2.28       0.0  T
   2    -44.6633135 -0.276180E-06  0.364E-02    2.28       1.0  T
   3    -44.6633128  0.752334E-06  0.463E-03    2.28       3.7  T
   4    -44.6633137 -0.888282E-06  0.913E-04    2.28      18.5  T
   5    -44.6633137 -0.126277E-07  0.443E-04    2.28      38.2  T
     SCC iter.                  ...        0 min,  0.004 sec
     gradient                   ...        0 min,  0.003 sec
 * total energy  :   -43.8775699 Eh     change       -0.7094142E-04 Eh
   gradient norm :     0.0014681 Eh/α   predicted    -0.3213858E-04 ( -54.70%)
   displ. norm   :     0.1156063 α      lambda       -0.3045155E-04
   maximum displ.:     0.1006339 α      in ANC's #2, #5, #6, ...

........................................................................
.............................. CYCLE   13 ..............................
........................................................................

 iter      E             dE          RMSdq      gap      omega  full diag
   1    -44.6635663 -0.446636E+02  0.316E-02    2.28       0.0  T
   2    -44.6635664 -0.761594E-07  0.185E-02    2.28       1.0  T
   3    -44.6635663  0.904544E-07  0.179E-03    2.28       9.5  T
   4    -44.6635664 -0.118830E-06  0.513E-04    2.28      33.0  T
   5    -44.6635664 -0.412707E-08  0.258E-04    2.28      65.6  T
     SCC iter.                  ...        0 min,  0.004 sec
     gradient                   ...        0 min,  0.003 sec
 * total energy  :   -43.8776080 Eh     change       -0.3815260E-04 Eh
   gradient norm :     0.0010531 Eh/α   predicted    -0.1531708E-04 ( -59.85%)
   displ. norm   :     0.1169045 α      lambda       -0.3311779E-04
   maximum displ.:     0.0939420 α      in ANC's #2, #4, #3, ...

........................................................................
.............................. CYCLE   14 ..............................
........................................................................

 iter      E             dE          RMSdq      gap      omega  full diag
   1    -44.6637177 -0.446637E+02  0.366E-02    2.28       0.0  T
   2    -44.6637177 -0.811947E-07  0.215E-02    2.28       1.0  T
   3    -44.6637177  0.140334E-07  0.113E-03    2.28      14.9  T
   4    -44.6637178 -0.400376E-07  0.416E-04    2.28      40.6  T
   5    -44.6637178 -0.171492E-08  0.221E-04    2.28      76.6  T
     SCC iter.                  ...        0 min,  0.004 sec
     gradient                   ...        0 min,  0.003 sec
 * total energy  :   -43.8776521 Eh     change       -0.4408837E-04 Eh
   gradient norm :     0.0010286 Eh/α   predicted    -0.1666003E-04 ( -62.21%)
   displ. norm   :     0.1812431 α      lambda       -0.4831471E-04
   maximum displ.:     0.1318287 α      in ANC's #2, #4, #3, ...

........................................................................
.............................. CYCLE   15 ..............................
........................................................................

 iter      E             dE          RMSdq      gap      omega  full diag
   1    -44.6633963 -0.446634E+02  0.615E-02    2.28       0.0  T
   2    -44.6633966 -0.220855E-06  0.361E-02    2.28       1.0  T
   3    -44.6633965  0.113492E-06  0.219E-03    2.28       7.7  T
   4    -44.6633966 -0.182722E-06  0.711E-04    2.28      23.8  T
   5    -44.6633966 -0.727030E-08  0.398E-04    2.28      42.5  T
     SCC iter.                  ...        0 min,  0.005 sec
     gradient                   ...        0 min,  0.003 sec
 * total energy  :   -43.8777172 Eh     change       -0.6508058E-04 Eh
   gradient norm :     0.0014634 Eh/α   predicted    -0.2451146E-04 ( -62.34%)
   displ. norm   :     0.2746262 α      lambda       -0.6639578E-04
   maximum displ.:     0.1933302 α      in ANC's #2, #4, #3, ...

........................................................................
.............................. CYCLE   16 ..............................
........................................................................

 iter      E             dE          RMSdq      gap      omega  full diag
   1    -44.6632627 -0.446633E+02  0.991E-02    2.28       0.0  T
   2    -44.6632632 -0.540490E-06  0.581E-02    2.28       1.0  T
   3    -44.6632629  0.348225E-06  0.355E-03    2.28       4.8  T
   4    -44.6632634 -0.528942E-06  0.108E-03    2.28      15.7  T
   5    -44.6632634 -0.163813E-07  0.603E-04    2.28      28.0  T
   6    -44.6632634 -0.377613E-08  0.306E-04    2.28      55.3  T
     SCC iter.                  ...        0 min,  0.005 sec
     gradient                   ...        0 min,  0.003 sec
 * total energy  :   -43.8778008 Eh     change       -0.8358216E-04 Eh
   gradient norm :     0.0016894 Eh/α   predicted    -0.3431274E-04 ( -58.95%)
   displ. norm   :     0.3088175 α      lambda       -0.6346090E-04
   maximum displ.:     0.2201806 α      in ANC's #2, #3, #4, ...

........................................................................
.............................. CYCLE   17 ..............................
........................................................................

 iter      E             dE          RMSdq      gap      omega  full diag
   1    -44.6627656 -0.446628E+02  0.116E-01    2.29       0.0  T
   2    -44.6627664 -0.792422E-06  0.678E-02    2.29       1.0  T
   3    -44.6627658  0.569429E-06  0.459E-03    2.29       3.7  T
   4    -44.6627666 -0.821771E-06  0.128E-03    2.29      13.2  T
   5    -44.6627667 -0.261270E-07  0.668E-04    2.29      25.3  T
   6    -44.6627667 -0.378000E-08  0.322E-04    2.29      52.4  T
     SCC iter.                  ...        0 min,  0.005 sec
     gradient                   ...        0 min,  0.003 sec
 * total energy  :   -43.8778741 Eh     change       -0.7331965E-04 Eh
   gradient norm :     0.0021183 Eh/α   predicted    -0.3307586E-04 ( -54.89%)
   displ. norm   :     0.1753402 α      lambda       -0.4931943E-04
   maximum displ.:     0.1288814 α      in ANC's #2, #3, #4, ...

........................................................................
.............................. CYCLE   18 ..............................
........................................................................

 iter      E             dE          RMSdq      gap      omega  full diag
   1    -44.6631506 -0.446632E+02  0.672E-02    2.29       0.0  T
   2    -44.6631508 -0.236181E-06  0.394E-02    2.29       1.0  T
   3    -44.6631506  0.207637E-06  0.270E-03    2.29       6.3  T
   4    -44.6631509 -0.298100E-06  0.701E-04    2.29      24.1  T
   5    -44.6631509 -0.511503E-08  0.399E-04    2.29      42.3  T
     SCC iter.                  ...        0 min,  0.004 sec
     gradient                   ...        0 min,  0.003 sec
 * total energy  :   -43.8779169 Eh     change       -0.4284208E-04 Eh
   gradient norm :     0.0014569 Eh/α   predicted    -0.2541840E-04 ( -40.67%)
   displ. norm   :     0.3397686 α      lambda       -0.5940368E-04
   maximum displ.:     0.2539789 α      in ANC's #2, #3, #4, ...

........................................................................
.............................. CYCLE   19 ..............................
........................................................................

 iter      E             dE          RMSdq      gap      omega  full diag
   1    -44.6636001 -0.446636E+02  0.130E-01    2.30       0.0  T
   2    -44.6636009 -0.889139E-06  0.764E-02    2.30       1.0  T
   3    -44.6636001  0.829419E-06  0.538E-03    2.30       3.1  T
   4    -44.6636013 -0.118508E-05  0.130E-03    2.30      13.0  T
   5    -44.6636013 -0.129819E-07  0.730E-04    2.30      23.2  T
   6    -44.6636013 -0.462630E-08  0.337E-04    2.30      50.2  T
     SCC iter.                  ...        0 min,  0.005 sec
     gradient                   ...        0 min,  0.003 sec
 * total energy  :   -43.8779883 Eh     change       -0.7135003E-04 Eh
   gradient norm :     0.0012611 Eh/α   predicted    -0.3122635E-04 ( -56.23%)
   displ. norm   :     0.3281134 α      lambda       -0.4920500E-04
   maximum displ.:     0.2467478 α      in ANC's #2, #3, #1, ...

........................................................................
.............................. CYCLE   20 ..............................
........................................................................

 iter      E             dE          RMSdq      gap      omega  full diag
   1    -44.6635467 -0.446635E+02  0.124E-01    2.31       0.0  T
   2    -44.6635475 -0.812679E-06  0.728E-02    2.31       1.0  T
   3    -44.6635461  0.141944E-05  0.680E-03    2.31       2.5  T
   4    -44.6635479 -0.178525E-05  0.147E-03    2.31      11.5  T
   5    -44.6635479 -0.289930E-07  0.780E-04    2.31      21.7  T
   6    -44.6635479 -0.537109E-08  0.312E-04    2.31      54.2  T
     SCC iter.                  ...        0 min,  0.005 sec
     gradient                   ...        0 min,  0.003 sec
 * total energy  :   -43.8780470 Eh     change       -0.5875138E-04 Eh
   gradient norm :     0.0016139 Eh/α   predicted    -0.2578456E-04 ( -56.11%)
   displ. norm   :     0.4276076 α      lambda       -0.5518990E-04
   maximum displ.:     0.3188088 α      in ANC's #2, #3, #1, ...
 * RMSD in coord.:     0.5972056 α      energy gain  -0.1316689E-01 Eh

generating ANC from exact Hessian ...
Using Lindh-Hessian (1995)
 Shifting diagonal of input Hessian by    9.4723586190485331E-003
 Lowest  eigenvalues of input Hessian
    0.000000    0.000000    0.000000    0.000000    0.000000    0.000000
    0.010000    0.010575    0.010922    0.012029    0.012423    0.014173
    0.014490    0.016345    0.016741    0.017853    0.018544    0.019664
 Highest eigenvalues
    1.739759    1.898291    1.924167    1.960896    2.001373    2.028724


........................................................................
.............................. CYCLE   21 ..............................
........................................................................

 iter      E             dE          RMSdq      gap      omega  full diag
   1    -44.6629632 -0.446630E+02  0.156E-01    2.31       0.0  T
   2    -44.6629646 -0.138319E-05  0.918E-02    2.32       1.0  T
   3    -44.6629634  0.122161E-05  0.662E-03    2.32       2.6  T
   4    -44.6629651 -0.174764E-05  0.167E-03    2.32      10.1  T
   5    -44.6629651 -0.244825E-07  0.928E-04    2.32      18.2  T
   6    -44.6629651 -0.813463E-08  0.433E-04    2.32      39.0  T
     SCC iter.                  ...        0 min,  0.005 sec
     gradient                   ...        0 min,  0.003 sec
 * total energy  :   -43.8780979 Eh     change       -0.5084693E-04 Eh
   gradient norm :     0.0020326 Eh/α   predicted     0.0000000E+00 (-100.00%)
   displ. norm   :     0.0286615 α      lambda       -0.2051895E-04
   maximum displ.:     0.0151149 α      in ANC's #7, #1, #4, ...

........................................................................
.............................. CYCLE   22 ..............................
........................................................................

 iter      E             dE          RMSdq      gap      omega  full diag
   1    -44.6641845 -0.446642E+02  0.117E-02    2.32       0.0  T
   2    -44.6641845 -0.445634E-07  0.696E-03    2.32       2.4  T
   3    -44.6641843  0.272942E-06  0.280E-03    2.32       6.0  T
   4    -44.6641846 -0.301894E-06  0.384E-04    2.32      44.0  T
   5    -44.6641846 -0.349368E-08  0.152E-04    2.32     111.4  T
     SCC iter.                  ...        0 min,  0.004 sec
     gradient                   ...        0 min,  0.003 sec
 * total energy  :   -43.8781131 Eh     change       -0.1518815E-04 Eh
   gradient norm :     0.0006230 Eh/α   predicted    -0.1030772E-04 ( -32.13%)
   displ. norm   :     0.0891051 α      lambda       -0.2034512E-04
   maximum displ.:     0.0476383 α      in ANC's #1, #7, #4, ...

........................................................................
.............................. CYCLE   23 ..............................
........................................................................

 iter      E             dE          RMSdq      gap      omega  full diag
   1    -44.6657023 -0.446657E+02  0.280E-02    2.33       0.0  T
   2    -44.6657024 -0.104622E-06  0.165E-02    2.33       1.0  T
   3    -44.6657010  0.140264E-05  0.615E-03    2.33       2.7  T
   4    -44.6657025 -0.153745E-05  0.574E-04    2.33      29.5  T
   5    -44.6657025 -0.689565E-08  0.247E-04    2.33      68.4  T
   6    -44.6657025 -0.252534E-09  0.119E-04    2.33     141.6  T
     SCC iter.                  ...        0 min,  0.005 sec
     gradient                   ...        0 min,  0.003 sec
 * total energy  :   -43.8781323 Eh     change       -0.1927204E-04 Eh
   gradient norm :     0.0017588 Eh/α   predicted    -0.1021054E-04 ( -47.02%)
   displ. norm   :     0.0960710 α      lambda       -0.1571665E-04
   maximum displ.:     0.0513548 α      in ANC's #1, #7, #4, ...

........................................................................
.............................. CYCLE   24 ..............................
........................................................................

 iter      E             dE          RMSdq      gap      omega  full diag
   1    -44.6653271 -0.446653E+02  0.258E-02    2.33       0.0  T
   2    -44.6653272 -0.551993E-07  0.152E-02    2.33       1.1  T
   3    -44.6653266  0.613073E-06  0.389E-03    2.33       4.3  T
   4    -44.6653273 -0.671929E-06  0.458E-04    2.33      36.9  T
   5    -44.6653273 -0.388230E-08  0.211E-04    2.33      80.3  T
     SCC iter.                  ...        0 min,  0.004 sec
     gradient                   ...        0 min,  0.003 sec
 * total energy  :   -43.8781518 Eh     change       -0.1948117E-04 Eh
   gradient norm :     0.0014377 Eh/α   predicted    -0.7890761E-05 ( -59.50%)
   displ. norm   :     0.1805863 α      lambda       -0.2441834E-04
   maximum displ.:     0.0960103 α      in ANC's #1, #4, #7, ...

........................................................................
.............................. CYCLE   25 ..............................
........................................................................

 iter      E             dE          RMSdq      gap      omega  full diag
   1    -44.6641607 -0.446642E+02  0.439E-02    2.32       0.0  T
   2    -44.6641609 -0.178358E-06  0.259E-02    2.32       1.0  T
   3    -44.6641596  0.129802E-05  0.580E-03    2.32       2.9  T
   4    -44.6641610 -0.143362E-05  0.845E-04    2.32      20.0  T
   5    -44.6641610 -0.128768E-07  0.392E-04    2.32      43.1  T
   6    -44.6641610 -0.320554E-09  0.157E-04    2.32     107.7  T
     SCC iter.                  ...        0 min,  0.005 sec
     gradient                   ...        0 min,  0.003 sec
 * total energy  :   -43.8781749 Eh     change       -0.2311082E-04 Eh
   gradient norm :     0.0009055 Eh/α   predicted    -0.1238875E-04 ( -46.39%)
   displ. norm   :     0.0893709 α      lambda       -0.7840408E-05
   maximum displ.:     0.0491613 α      in ANC's #1, #4, #3, ...

........................................................................
.............................. CYCLE   26 ..............................
........................................................................

 iter      E             dE          RMSdq      gap      omega  full diag
   1    -44.6639196 -0.446639E+02  0.220E-02    2.32       0.0  T
   2    -44.6639197 -0.383381E-07  0.130E-02    2.32       1.3  T
   3    -44.6639195  0.141768E-06  0.197E-03    2.32       8.6  T
   4    -44.6639197 -0.161955E-06  0.403E-04    2.32      41.9  T
   5    -44.6639197 -0.298044E-08  0.196E-04    2.32      86.3  T
     SCC iter.                  ...        0 min,  0.004 sec
     gradient                   ...        0 min,  0.003 sec
 * total energy  :   -43.8781838 Eh     change       -0.8924658E-05 Eh
   gradient norm :     0.0009201 Eh/α   predicted    -0.3935270E-05 ( -55.91%)
   displ. norm   :     0.0996000 α      lambda       -0.9117299E-05
   maximum displ.:     0.0537803 α      in ANC's #1, #3, #4, ...

........................................................................
.............................. CYCLE   27 ..............................
........................................................................

 iter      E             dE          RMSdq      gap      omega  full diag
   1    -44.6641980 -0.446642E+02  0.284E-02    2.32       0.0  T
   2    -44.6641980 -0.531705E-07  0.167E-02    2.32       1.0  T
   3    -44.6641977  0.321059E-06  0.315E-03    2.32       5.4  T
   4    -44.6641981 -0.360627E-06  0.431E-04    2.32      39.2  T
   5    -44.6641981 -0.268331E-08  0.229E-04    2.32      73.8  T
     SCC iter.                  ...        0 min,  0.004 sec
     gradient                   ...        0 min,  0.003 sec
 * total energy  :   -43.8781936 Eh     change       -0.9753583E-05 Eh
   gradient norm :     0.0006332 Eh/α   predicted    -0.4584673E-05 ( -52.99%)
   displ. norm   :     0.0809318 α      lambda       -0.5093220E-05
   maximum displ.:     0.0470419 α      in ANC's #3, #1, #6, ...

........................................................................
.............................. CYCLE   28 ..............................
........................................................................

 iter      E             dE          RMSdq      gap      omega  full diag
   1    -44.6644263 -0.446644E+02  0.256E-02    2.32       0.0  T
   2    -44.6644264 -0.330525E-07  0.150E-02    2.32       1.1  T
   3    -44.6644263  0.761146E-07  0.161E-03    2.32      10.5  T
   4    -44.6644264 -0.939216E-07  0.326E-04    2.32      51.9  T
   5    -44.6644264 -0.695316E-09  0.200E-04    2.32      84.6  T
     SCC iter.                  ...        0 min,  0.004 sec
     gradient                   ...        0 min,  0.003 sec
 * total energy  :   -43.8781990 Eh     change       -0.5395066E-05 Eh
   gradient norm :     0.0003491 Eh/α   predicted    -0.2556268E-05 ( -52.62%)
   displ. norm   :     0.0531167 α      lambda       -0.2927383E-05
   maximum displ.:     0.0353129 α      in ANC's #3, #1, #5, ...

........................................................................
.............................. CYCLE   29 ..............................
........................................................................

 iter      E             dE          RMSdq      gap      omega  full diag
   1    -44.6646630 -0.446647E+02  0.197E-02    2.32       0.0  T
   2    -44.6646630 -0.196132E-07  0.115E-02    2.32       1.5  T
   3    -44.6646630  0.358058E-07  0.112E-03    2.32      15.1  T
   4    -44.6646630 -0.445289E-07  0.242E-04    2.32      69.7  T
   5    -44.6646630 -0.748436E-09  0.135E-04    2.32     125.2  T
     SCC iter.                  ...        0 min,  0.004 sec
     gradient                   ...        0 min,  0.003 sec
 * total energy  :   -43.8782026 Eh     change       -0.3599599E-05 Eh
   gradient norm :     0.0003068 Eh/α   predicted    -0.1468471E-05 ( -59.20%)
   displ. norm   :     0.0536942 α      lambda       -0.2935843E-05
   maximum displ.:     0.0358517 α      in ANC's #3, #1, #5, ...

   *** GEOMETRY OPTIMIZATION CONVERGED AFTER 29 ITERATIONS ***

------------------------------------------------------------------------
 total energy gain   :        -0.0133225 Eh       -8.3600 kcal/mol
 total RMSD          :         0.6257065 a0        0.3311 Å
 total power (kW/mol):        -1.2061422 (step) -112.8660 (real)
------------------------------------------------------------------------

 ANCopt (total)                0 d,  0 h,  0 min,  0.310 sec
 optimizer setup                ...        0 min,  0.000 sec (  0.022%)
 model hessian                  ...        0 min,  0.031 sec (  9.975%)
 ANC generation                 ...        0 min,  0.001 sec (  0.476%)
 coordinate transformation      ...        0 min,  0.000 sec (  0.056%)
 single point calculation       ...        0 min,  0.273 sec ( 88.189%)
 optimization log               ...        0 min,  0.002 sec (  0.590%)
 hessian update                 ...        0 min,  0.000 sec (  0.083%)
 rational function              ...        0 min,  0.001 sec (  0.388%)

================
 final structure:
================
35
 xtb: 6.7.1 (edcfbbe)
C           -2.59358080876497        2.06824024036435       -0.65348379092389
C           -2.66756769535987        0.82454079996928        0.23256016162636
C           -1.61875119804442       -0.21848948604850       -0.03956648289401
C           -1.36635937168241       -0.67639215294993       -1.30093834161422
C           -0.58992932314889       -1.81491790748311       -1.53793333872683
C           -0.19977236946808       -2.61754721257542       -0.45433725079149
C           -0.42157367371341       -2.21145214356047        0.81830643831671
C           -0.90709934783551       -0.83421542411099        1.12210945177748
C            0.36944384556247       -0.01063714624670        1.58280288194363
C            0.02206173691764        1.36417830204214        2.14424715423629
C            1.37482596331299        0.04831281664393        0.46702744845112
C            1.24508421150061        0.92823595180476       -0.60012649232673
C            2.16420551014686        0.92971156742956       -1.63341702363901
C            3.23242713134987        0.05052402559752       -1.61948616632608
C            3.37597809889590       -0.82870771447040       -0.56052798118411
C            2.45415430723955       -0.82850696327152        0.46970550448260
H           -3.39033890393224        2.75994608729884       -0.38795456541142
H           -1.64364067827415        2.58293883344406       -0.52832485154831
H           -2.70403829173488        1.81087145792167       -1.70291444782514
H           -3.64958576467596        0.35961494703404        0.07882313245069
H           -2.62263960255325        1.12849014322478        1.27960509401989
H           -1.82723867635213       -0.18978716407210       -2.14914958081750
H           -0.38355273072014       -2.12887931344666       -2.54833182656808
H            0.24163992174518       -3.58484460786516       -0.64852374521293
H           -0.15843941643601       -2.83598796945141        1.65906773233839
H           -1.56822021100385       -0.84654155004240        1.99897602665227
H            0.80638999266451       -0.59880750930076        2.39849951809257
H            0.92918328669782        1.84210596865393        2.51098687345029
H           -0.67366630819591        1.27039393517422        2.97620152676728
H           -0.41894758566354        2.01074038520146        1.39391719399058
H            0.41591635349585        1.61626551690380       -0.63669541481626
H            2.04303909147956        1.61955631788695       -2.45639771792417
H            3.94882880364973        0.05087904232846       -2.42800266800946
H            4.20774217464467       -1.51810104606282       -0.53750215051801
H            2.57382152825770       -1.52193102796742        1.29057769847745

 Bond Distances (Angstroems)
 ---------------------------
C1-C2=1.5288         C1-H17=1.0880        C1-H18=1.0876        C1-H19=1.0862        C2-C1=1.5288         C2-C3=1.5040         
C2-H20=1.0973        C2-H21=1.0912        C3-C2=1.5040         C3-C4=1.3654         C3-C8=1.4950         C4-C3=1.3654         
C4-C5=1.3983         C4-H22=1.0810        C5-C4=1.3983         C5-C6=1.4038         C5-H23=1.0780        C6-C5=1.4038         
C6-C7=1.3542         C6-H24=1.0808        C7-C6=1.3542         C7-C8=1.4916         C7-H25=1.0799        C8-C3=1.4950         
C8-C7=1.4916         C8-C9=1.5875         C8-H26=1.0982        C9-C8=1.5875         C9-C10=1.5251        C9-C11=1.5031        
C9-H27=1.0965        C10-C9=1.5251        C10-H28=1.0889       C10-H29=1.0886       C10-H30=1.0842       C11-C9=1.5031        
C11-C12=1.3892       C11-C16=1.3906       C12-C11=1.3892       C12-C13=1.3829       C12-H31=1.0781       C13-C12=1.3829       
C13-C14=1.3836       C13-H32=1.0807       C14-C13=1.3836       C14-C15=1.3839       C14-H33=1.0802       C15-C14=1.3839       
C15-C16=1.3824       C15-H34=1.0806       C16-C11=1.3906       C16-C15=1.3824       C16-H35=1.0812       H17-C1=1.0880        
H18-C1=1.0876        H19-C1=1.0862        H20-C2=1.0973        H21-C2=1.0912        H22-C4=1.0810        H23-C5=1.0780        
H24-C6=1.0808        H25-C7=1.0799        H26-C8=1.0982        H27-C9=1.0965        H28-C10=1.0889       H29-C10=1.0886       
H30-C10=1.0842       H31-C12=1.0781       H32-C13=1.0807       H33-C14=1.0802       H34-C15=1.0806       H35-C16=1.0812       
 C  H  Rav=1.0856 sigma=0.0064  Rmin=1.0780  Rmax=1.0982    19
 C  C  Rav=1.4394 sigma=0.0705  Rmin=1.3542  Rmax=1.5875    17

 selected bond angles (degree)
 --------------------
H17-C1-C2=109.90               H18-C1-C2=111.13               H18-C1-H17=108.10              H19-C1-C2=111.24               
H19-C1-H17=108.18              H19-C1-H18=108.19              C3-C2-C1=115.19                H20-C2-C1=107.87               
H20-C2-C3=107.75               H21-C2-C1=109.12               H21-C2-C3=109.76               H21-C2-H20=106.82              
C4-C3-C2=121.91                C8-C3-C2=118.49                C8-C3-C4=119.45                C5-C4-C3=122.16                
H22-C4-C3=119.67               H22-C4-C5=118.05               C6-C5-C4=119.28                H23-C5-C4=120.15               
H23-C5-C6=120.25               C7-C6-C5=120.56                H24-C6-C5=119.11               H24-C6-C7=120.27               
C8-C7-C6=121.44                H25-C7-C6=121.22               H25-C7-C8=117.05               C7-C8-C3=112.15                
C9-C8-C3=113.24                C9-C8-C7=106.04                H26-C8-C3=109.78               H26-C8-C7=110.38               
H26-C8-C9=104.96               C10-C9-C8=113.04               C11-C9-C8=110.05               C11-C9-C10=112.97              
H27-C9-C8=104.95               H27-C9-C10=107.49              H27-C9-C11=107.86              H28-C10-C9=109.26              
H29-C10-C9=110.44              H29-C10-H28=108.23             H30-C10-C9=112.05              H30-C10-H28=108.07             
H30-C10-H29=108.68             

 selected dihedral angles (degree)
 ---------------------------------
C3-C2-C1-H17=179.72           C3-C2-C1-H18=299.33           C3-C2-C1-H19= 59.95           H20-C2-C1-H17= 59.35          
H20-C2-C1-H18=178.96          H20-C2-C1-H19=299.58          H21-C2-C1-H17=303.67          H21-C2-C1-H18= 63.28          
H21-C2-C1-H19=183.89          C4-C3-C2-C1=310.26            C4-C3-C2-H20= 70.70           C4-C3-C2-H21=186.66           
C8-C3-C2-C1=134.69            C8-C3-C2-H20=255.12           C8-C3-C2-H21= 11.08           C5-C4-C3-C2=192.65            
C5-C4-C3-C8=  8.18            H22-C4-C3-C2=  8.62           H22-C4-C3-C8=184.15           C6-C5-C4-C3=  8.54            
C6-C5-C4-H22=192.50           H23-C5-C4-C3=182.06           H23-C5-C4-H22=  6.02          C7-C6-C5-C4=351.61            
C7-C6-C5-H23=178.10           H24-C6-C5-C4=168.96           H24-C6-C5-H23=355.45          C8-C7-C6-C5=351.41            
C8-C7-C6-H24=174.09           H25-C7-C6-C5=177.76           H25-C7-C6-H24=  0.44          C7-C8-C3-C2=152.85            
C7-C8-C3-C4=337.17            C9-C8-C3-C2=272.82            C9-C8-C3-C4= 97.14            H26-C8-C3-C2= 29.76           
H26-C8-C3-C4=214.08           C3-C8-C7-C6= 23.37            C3-C8-C7-H25=197.27           C9-C8-C7-C6=259.29            
C9-C8-C7-H25= 73.19           H26-C8-C7-C6=146.12           H26-C8-C7-H25=320.02          C10-C9-C8-C3= 65.69           
C10-C9-C8-C7=189.09           C10-C9-C8-H26=305.95          C11-C9-C8-C3=298.35           C11-C9-C8-C7= 61.74           
C11-C9-C8-H26=178.61          H27-C9-C8-C3=182.53           H27-C9-C8-C7=305.93           H27-C9-C8-H26= 62.79          
H28-C10-C9-C8=175.63          H28-C10-C9-C11=301.42         H28-C10-C9-H27= 60.29         H29-C10-C9-C8= 56.69          
H29-C10-C9-C11=182.48         H29-C10-C9-H27=301.35         H30-C10-C9-C8=295.37          H30-C10-C9-C11= 61.16         
H30-C10-C9-H27=180.03         
           -------------------------------------------------
          |                Final Singlepoint                |
           -------------------------------------------------

          ...................................................
          :                      SETUP                      :
          :.................................................:
          :  # basis functions                  83          :
          :  # atomic orbitals                  83          :
          :  # shells                           51          :
          :  # electrons                        83          :
          :  max. iterations                   250          :
          :  Hamiltonian                  GFN2-xTB          :
          :  restarted?                      false          :
          :  GBSA solvation                  false          :
          :  PC potential                    false          :
          :  electronic temp.          300.0000000     K    :
          :  accuracy                    1.0000000          :
          :  -> integral cutoff          0.2500000E+02      :
          :  -> integral neglect         0.1000000E-07      :
          :  -> SCF convergence          0.1000000E-05 Eh   :
          :  -> wf. convergence          0.1000000E-03 e    :
          :  Broyden damping             0.4000000          :
          :  net charge                          0          :
          :  unpaired electrons                  0          :
          ...................................................

 iter      E             dE          RMSdq      gap      omega  full diag
   1    -44.6646630 -0.446647E+02  0.589E-05    2.32       0.0  T
   2    -44.6646630 -0.188862E-10  0.426E-05    2.32     396.9  T
   3    -44.6646630 -0.503348E-10  0.225E-05    2.32     750.1  T

   *** convergence criteria satisfied after 3 iterations ***

         #    Occupation            Energy/Eh            Energy/eV
      -------------------------------------------------------------
         1        2.0000           -0.6392431             -17.3947
       ...           ...                  ...                  ...
        36        2.0000           -0.4136347             -11.2556
        37        2.0000           -0.4103500             -11.1662
        38        2.0000           -0.4049361             -11.0189
        39        2.0000           -0.3968690             -10.7994
        40        2.0000           -0.3888167             -10.5802
        41        2.0000           -0.3832186             -10.4279
        42        1.0000           -0.2989077              -8.1337 (HOMO)
        43                         -0.2135076              -5.8098 (LUMO)
        44                         -0.2128985              -5.7933
        45                         -0.2030754              -5.5260
        46                         -0.1237026              -3.3661
        47                         -0.0847144              -2.3052
       ...                                ...                  ...
        83                          0.6758638              18.3912
      -------------------------------------------------------------
                  HL-Gap            0.0854001 Eh            2.3239 eV
             Fermi-level           -0.2986354 Eh           -8.1263 eV

 SCC (total)                   0 d,  0 h,  0 min,  0.007 sec
 SCC setup                      ...        0 min,  0.000 sec (  0.831%)
 Dispersion                     ...        0 min,  0.000 sec (  1.368%)
 classical contributions        ...        0 min,  0.000 sec (  0.324%)
 integral evaluation            ...        0 min,  0.001 sec ( 14.429%)
 iterations                     ...        0 min,  0.003 sec ( 36.672%)
 molecular gradient             ...        0 min,  0.003 sec ( 43.047%)
 printout                       ...        0 min,  0.000 sec (  3.209%)

         :::::::::::::::::::::::::::::::::::::::::::::::::::::
         ::                     SUMMARY                     ::
         :::::::::::::::::::::::::::::::::::::::::::::::::::::
         :: total energy             -43.878202595945 Eh    ::
         :: gradient norm              0.000307314107 Eh/a0 ::
         :: HOMO-LUMO gap              2.323856337327 eV    ::
         ::.................................................::
         :: SCC energy               -44.663780467199 Eh    ::
         :: -> isotropic ES            0.004477643321 Eh    ::
         :: -> anisotropic ES          0.010011888823 Eh    ::
         :: -> anisotropic XC          0.028231573506 Eh    ::
         :: -> dispersion             -0.039379803249 Eh    ::
         :: repulsion energy           0.785577871254 Eh    ::
         :: add. restraining           0.000000000000 Eh    ::
         :: total charge               0.000000000000 e     ::
         :::::::::::::::::::::::::::::::::::::::::::::::::::::

           -------------------------------------------------
          |                Property Printout                |
           -------------------------------------------------

    * Orbital Energies and Occupations

         #    Occupation            Energy/Eh            Energy/eV
      -------------------------------------------------------------
         1        2.0000           -0.6392431             -17.3947
       ...           ...                  ...                  ...
        30        2.0000           -0.4515368             -12.2869
        31        2.0000           -0.4466375             -12.1536
        32        2.0000           -0.4416308             -12.0174
        33        2.0000           -0.4370421             -11.8925
        34        2.0000           -0.4314590             -11.7406
        35        2.0000           -0.4141101             -11.2685
        36        2.0000           -0.4136347             -11.2556
        37        2.0000           -0.4103500             -11.1662
        38        2.0000           -0.4049361             -11.0189
        39        2.0000           -0.3968690             -10.7994
        40        2.0000           -0.3888167             -10.5802
        41        2.0000           -0.3832186             -10.4279
        42        1.0000           -0.2989077              -8.1337 (HOMO)
        43                         -0.2135076              -5.8098 (LUMO)
        44                         -0.2128985              -5.7933
        45                         -0.2030754              -5.5260
        46                         -0.1237026              -3.3661
        47                         -0.0847144              -2.3052
        48                          0.0643169               1.7502
        49                          0.0751224               2.0442
        50                          0.0950570               2.5866
        51                          0.1057907               2.8787
        52                          0.1092001               2.9715
        53                          0.1217856               3.3140
       ...                                ...                  ...
        83                          0.6758638              18.3912
      -------------------------------------------------------------
                  HL-Gap            0.0854001 Eh            2.3239 eV
             Fermi-level           -0.2986354 Eh           -8.1263 eV

     #   Z          covCN         q      C6AA      α(0)
     1   6 C        3.751    -0.095    22.368     6.745
     2   6 C        3.804    -0.056    21.585     6.614
     3   6 C        2.955     0.001    28.008     8.680
     4   6 C        2.909    -0.038    28.948     8.822
     5   6 C        2.917    -0.043    29.061     8.840
     6   6 C        2.904    -0.033    28.816     8.802
     7   6 C        2.914    -0.045    29.113     8.848
     8   6 C        3.860    -0.016    20.820     6.489
     9   6 C        3.857    -0.014    20.791     6.485
    10   6 C        3.753    -0.100    22.470     6.760
    11   6 C        2.970     0.012    27.738     8.639
    12   6 C        2.925    -0.033    28.823     8.804
    13   6 C        2.920    -0.031    28.785     8.798
    14   6 C        2.920    -0.033    28.829     8.805
    15   6 C        2.919    -0.031    28.773     8.796
    16   6 C        2.927    -0.037    28.914     8.818
    17   1 H        0.925     0.032     2.552     2.498
    18   1 H        0.925     0.030     2.583     2.513
    19   1 H        0.925     0.036     2.497     2.471
    20   1 H        0.924     0.040     2.452     2.449
    21   1 H        0.924     0.038     2.480     2.463
    22   1 H        0.926     0.026     2.645     2.543
    23   1 H        0.926     0.022     2.707     2.573
    24   1 H        0.926     0.024     2.674     2.557
    25   1 H        0.926     0.021     2.718     2.578
    26   1 H        0.923     0.039     2.463     2.454
    27   1 H        0.924     0.034     2.528     2.486
    28   1 H        0.925     0.036     2.509     2.477
    29   1 H        0.925     0.033     2.548     2.496
    30   1 H        0.925     0.045     2.382     2.414
    31   1 H        0.926     0.032     2.555     2.499
    32   1 H        0.926     0.026     2.638     2.540
    33   1 H        0.926     0.027     2.636     2.539
    34   1 H        0.926     0.027     2.630     2.536
    35   1 H        0.926     0.024     2.669     2.555

 Mol. C6AA /au·bohr⁶  :      12659.732062
 Mol. C8AA /au·bohr⁸  :     299467.972711
 Mol. α(0) /au        :        177.387622


Wiberg/Mayer (AO) data.
largest (>0.10) Wiberg bond orders for each atom

 ---------------------------------------------------------------------------
     #   Z sym  total        # sym  WBO       # sym  WBO       # sym  WBO
 ---------------------------------------------------------------------------
     1   6 C    3.997 --     2 C    1.008    17 H    0.987    19 H    0.985
                            18 H    0.982
     2   6 C    3.997 --     3 C    1.022     1 C    1.008    21 H    0.973
                            20 H    0.953
     3   6 C    3.916 --     4 C    1.563     8 C    1.034     2 C    1.022
     4   6 C    3.993 --     3 C    1.563     5 C    1.341    22 H    0.963
     5   6 C    3.882 --     4 C    1.341     6 C    1.303    23 H    0.974
     6   6 C    3.993 --     7 C    1.634     5 C    1.303    24 H    0.967
     7   6 C    3.925 --     6 C    1.634     8 C    1.037    25 H    0.971
     8   6 C    3.994 --     7 C    1.037     3 C    1.034    26 H    0.944
                             9 C    0.875
     9   6 C    3.986 --    11 C    1.010    10 C    1.005    27 H    0.965
                             8 C    0.875
    10   6 C    3.996 --     9 C    1.005    29 H    0.985    28 H    0.983
                            30 H    0.980
    11   6 C    3.988 --    12 C    1.408    16 C    1.406     9 C    1.010
                            14 C    0.109
    12   6 C    3.992 --    13 C    1.445    11 C    1.408    31 H    0.962
                            15 C    0.110
    13   6 C    3.993 --    12 C    1.445    14 C    1.438    32 H    0.971
                            16 C    0.110
    14   6 C    3.992 --    13 C    1.438    15 C    1.436    33 H    0.972
                            11 C    0.109
    15   6 C    3.992 --    16 C    1.448    14 C    1.436    34 H    0.971
                            12 C    0.110
    16   6 C    3.992 --    15 C    1.448    11 C    1.406    35 H    0.969
                            13 C    0.110
    17   1 H    0.998 --     1 C    0.987
    18   1 H    0.999 --     1 C    0.982
    19   1 H    0.999 --     1 C    0.985
    20   1 H    0.998 --     2 C    0.953
    21   1 H    0.998 --     2 C    0.973
    22   1 H    0.999 --     4 C    0.963
    23   1 H    0.999 --     5 C    0.974
    24   1 H    0.999 --     6 C    0.967
    25   1 H    0.999 --     7 C    0.971
    26   1 H    0.997 --     8 C    0.944
    27   1 H    0.999 --     9 C    0.965
    28   1 H    0.997 --    10 C    0.983
    29   1 H    0.998 --    10 C    0.985
    30   1 H    0.998 --    10 C    0.980
    31   1 H    0.999 --    12 C    0.962
    32   1 H    0.999 --    13 C    0.971
    33   1 H    0.999 --    14 C    0.972
    34   1 H    0.999 --    15 C    0.971
    35   1 H    0.999 --    16 C    0.969
 ---------------------------------------------------------------------------

Topologies differ in total number of bonds
Writing topology from bond orders to xtbtopo.mol

molecular dipole:
                 x           y           z       tot (Debye)
 q only:       -0.264       0.330       0.309
   full:       -0.277       0.295       0.328       1.324
molecular quadrupole (traceless):
                xx          xy          yy          xz          yz          zz
 q only:       -0.011      -1.873      -0.958      -0.591      -0.629       0.969
  q+dip:       -1.486      -6.058      -2.596      -1.870      -2.510       4.082
   full:       -0.435      -3.382      -1.741      -0.899      -1.338       2.176

           -------------------------------------------------
          |                Geometry Summary                 |
           -------------------------------------------------

      molecular mass/u    :      211.3226486
   center of mass at/Å    :        0.2016804      -0.1992652      -0.0813836
  moments of inertia/u·Å² :        0.6451486E+03   0.1071630E+04   0.1142627E+04
rotational constants/cm⁻¹ :        0.2612985E-01   0.1573084E-01   0.1475340E-01

 * 31 selected distances

     #   Z          #   Z                                           value/Å
     1   6 C        2   6 C                                       1.5288351 (max)
     3   6 C        4   6 C                                       1.3654434
     4   6 C        5   6 C                                       1.3983031
     5   6 C        6   6 C                                       1.4037867
     6   6 C        7   6 C                                       1.3541534
     9   6 C       10   6 C                                       1.5251269
    11   6 C       12   6 C                                       1.3892140
    12   6 C       13   6 C                                       1.3829229
    13   6 C       14   6 C                                       1.3835688
    14   6 C       15   6 C                                       1.3838526
    11   6 C       16   6 C                                       1.3906006
    15   6 C       16   6 C                                       1.3824401
     1   6 C       17   1 H                                       1.0880195
     1   6 C       18   1 H                                       1.0876423
     1   6 C       19   1 H                                       1.0861604
     2   6 C       20   1 H                                       1.0973381
     2   6 C       21   1 H                                       1.0911952
     4   6 C       22   1 H                                       1.0810443
     5   6 C       23   1 H                                       1.0779928 (min)
     6   6 C       24   1 H                                       1.0808412
     7   6 C       25   1 H                                       1.0798909
     8   6 C       26   1 H                                       1.0982386
     9   6 C       27   1 H                                       1.0964614
    10   6 C       28   1 H                                       1.0889365
    10   6 C       29   1 H                                       1.0885685
    10   6 C       30   1 H                                       1.0842172
    12   6 C       31   1 H                                       1.0780731
    13   6 C       32   1 H                                       1.0806778
    14   6 C       33   1 H                                       1.0802456
    15   6 C       34   1 H                                       1.0805670
    16   6 C       35   1 H                                       1.0811977

 * 2 distinct bonds (by element types)

   Z      Z             #   av. dist./Å        max./Å        min./Å
   1 H    6 C          19     1.0856478     1.0982386     1.0779928
   6 C    6 C          12     1.4073540     1.5288351     1.3541534


optimized geometry written to: xtbopt.xyz


           -------------------------------------------------
          | TOTAL ENERGY              -43.878202595945 Eh   |
          | GRADIENT NORM               0.000307314107 Eh/α |
          | HOMO-LUMO GAP               2.323856337327 eV   |
           -------------------------------------------------

------------------------------------------------------------------------
 * finished run on 2025/09/15 at 14:52:51.897     
------------------------------------------------------------------------
 total:
 * wall-time:     0 d,  0 h,  0 min,  0.364 sec
 *  cpu-time:     0 d,  0 h,  0 min,  1.436 sec
 * ratio c/w:     3.951 speedup
 SCF:
 * wall-time:     0 d,  0 h,  0 min,  0.027 sec
 *  cpu-time:     0 d,  0 h,  0 min,  0.104 sec
 * ratio c/w:     3.855 speedup
 ANC optimizer:
 * wall-time:     0 d,  0 h,  0 min,  0.318 sec
 *  cpu-time:     0 d,  0 h,  0 min,  1.271 sec
 * ratio c/w:     4.000 speedup

