35
 energy: -43.864880133403 gnorm: 0.071475441876 xtb: 6.7.1 (edcfbbe)
C           -2.65850000000000        2.08490000000000       -0.62520000000000
C           -2.71170000000000        0.86280000000000        0.28360000000000
C           -1.75840000000000       -0.25110000000000       -0.09220000000000
C           -1.80710000000000       -0.81030000000000       -1.31980000000000
C           -1.03190000000000       -1.99480000000000       -1.59400000000000
C           -0.50840000000000       -2.81650000000000       -0.53410000000000
C           -0.44000000000000       -2.29310000000000        0.69910000000000
C           -0.87350000000000       -0.85770000000000        1.02060000000000
C            0.38640000000000       -0.03370000000000        1.47010000000000
C            0.05680000000000        1.34390000000000        2.05810000000000
C            1.50160000000000        0.07500000000000        0.43260000000000
C            1.38510000000000        0.88420000000000       -0.70620000000000
C            2.42320000000000        0.96470000000000       -1.63750000000000
C            3.59490000000000        0.23830000000000       -1.44340000000000
C            3.72870000000000       -0.57070000000000       -0.31850000000000
C            2.69060000000000       -0.65190000000000        0.61210000000000
H           -3.34340000000000        2.85470000000000       -0.25450000000000
H           -1.65470000000000        2.51780000000000       -0.65740000000000
H           -2.95970000000000        1.84270000000000       -1.64910000000000
H           -3.73280000000000        0.45960000000000        0.27990000000000
H           -2.53590000000000        1.18590000000000        1.31410000000000
H           -2.46040000000000       -0.44460000000000       -2.10450000000000
H           -0.95350000000000       -2.34610000000000       -2.61660000000000
H           -0.17630000000000       -3.82400000000000       -0.75500000000000
H           -0.03680000000000       -2.88820000000000        1.51300000000000
H           -1.52870000000000       -0.95340000000000        1.89970000000000
H            0.80820000000000       -0.59170000000000        2.32110000000000
H            0.95190000000000        1.79430000000000        2.50360000000000
H           -0.69400000000000        1.25750000000000        2.85040000000000
H           -0.31210000000000        2.04790000000000        1.30810000000000
H            0.48030000000000        1.45600000000000       -0.88770000000000
H            2.31250000000000        1.59340000000000       -2.51680000000000
H            4.40070000000000        0.30020000000000       -2.16930000000000
H            4.64020000000000       -1.14190000000000       -0.16500000000000
H            2.81650000000000       -1.29430000000000        1.48050000000000
35
 energy: -43.873315613825 gnorm: 0.032006755624 xtb: 6.7.1 (edcfbbe)
C           -2.65170403243016        2.07439063897708       -0.62315896051463
C           -2.69519272554573        0.85312737881855        0.29312986509068
C           -1.73819393513222       -0.25709519665869       -0.07617447471312
C           -1.77109519726507       -0.82298168017804       -1.30881762829322
C           -1.04504288734831       -2.00087440163982       -1.60373738562357
C           -0.48942455960708       -2.76835014775125       -0.55265581606455
C           -0.43336498052176       -2.25446080005595        0.69262383584634
C           -0.87204305391323       -0.84853108170509        1.02241509517559
C            0.39092782189977       -0.03704056372557        1.47365328849025
C            0.05529673776135        1.34320146012781        2.04620453664306
C            1.48081427379176        0.05219198149183        0.42069641074591
C            1.37028093235483        0.86334925266707       -0.70501616249989
C            2.40632995336130        0.95445272594500       -1.62396491426102
C            3.57552122264282        0.23700764936480       -1.43347994791571
C            3.70467815782182       -0.56871553646354       -0.31514244615918
C            2.66729893282242       -0.65810453782083        0.60087314372455
H           -3.33709075895394        2.84052217530244       -0.25777553597134
H           -1.65281199914232        2.50701328197374       -0.65493598652798
H           -2.94433303523913        1.82563204395733       -1.64226759879480
H           -3.71559033672064        0.44787744535700        0.26729094491501
H           -2.51950035088515        1.17753133424408        1.32067980472659
H           -2.39748752374050       -0.42450530667057       -2.09646941196931
H           -0.99370639009535       -2.36316399275730       -2.61999988785896
H           -0.15792982461000       -3.77486415601292       -0.76664378046871
H           -0.04664590646877       -2.84489106486496        1.51408759423388
H           -1.51019554499782       -0.91443513477884        1.91747330359517
H            0.80892663919567       -0.61815100678256        2.30822659023796
H            0.95409131965047        1.78090324937206        2.48419660069533
H           -0.69065944234422        1.25664667542914        2.83728753647571
H           -0.31352354218892        2.03463775485871        1.29215414570845
H            0.46923321188960        1.43383934964153       -0.87898808612333
H            2.29944941002452        1.58746846760085       -2.49528501396358
H            4.38167526580825        0.30427930357987       -2.15308937669109
H            4.61601319603370       -1.13111565174228       -0.15654312274982
H            2.79479895209211       -1.28699190910072        1.47295284085929
35
 energy: -43.875752570147 gnorm: 0.009215498555 xtb: 6.7.1 (edcfbbe)
C           -2.63904091098756        2.06791955329559       -0.62356515392708
C           -2.68345658352017        0.84661451556473        0.29622465435990
C           -1.71753714793029       -0.25322825603424       -0.06387975367888
C           -1.72568103013964       -0.81319371694057       -1.30749415939434
C           -1.04255508474515       -1.99387763354346       -1.60864730463834
C           -0.47673107477114       -2.73472559635999       -0.56283308509890
C           -0.43785073258961       -2.23615885596090        0.69468671801481
C           -0.88232314604182       -0.85115923631049        1.02657340716438
C            0.38787399803666       -0.04202683203755        1.47713334721779
C            0.06116353539031        1.34158295848395        2.03890591068837
C            1.46277567104927        0.04257626527761        0.42158214444481
C            1.34550704328762        0.84581026750046       -0.70371753464445
C            2.37801572056248        0.94064835138182       -1.61915167891419
C            3.55054475403692        0.23227547675367       -1.42935774630573
C            3.67925445816029       -0.57519576096080       -0.31476362796450
C            2.64572752374323       -0.66493896558859        0.59810006339217
H           -3.33072737779417        2.82695131038798       -0.26310345374779
H           -1.64273855363204        2.50236018581993       -0.65070142004001
H           -2.92261145503357        1.80689655386488       -1.63912324841592
H           -3.69975802026523        0.43338858620588        0.25335599444163
H           -2.51309021972030        1.16822881532688        1.32300215146109
H           -2.33448004941248       -0.38044448197351       -2.09192403207279
H           -1.03190697698157       -2.37678248189429       -2.61768998001860
H           -0.10429939032199       -3.72764905509337       -0.77477477390644
H           -0.03324539652765       -2.81689294440472        1.51108463212162
H           -1.50384438999192       -0.88961541387883        1.93787499825226
H            0.80414789617098       -0.63114949218866        2.30400243829744
H            0.96271028940738        1.77772580356067        2.46574302051703
H           -0.68260253371421        1.26136917687665        2.82930728578433
H           -0.30818915856490        2.01497934391148        1.27358069368600
H            0.44001738779068        1.40604355088154       -0.87503680815350
H            2.27291848747265        1.58052892690726       -2.48313094576272
H            4.35967017845611        0.31167695104321       -2.14107706524958
H            4.59296262837387       -1.12813910977429       -0.15049112620114
H            2.76917966074713       -1.29259876009997        1.46910543829111
35
 energy: -43.876336248412 gnorm: 0.006543188456 xtb: 6.7.1 (edcfbbe)
C           -2.62964780418435        2.06790112041173       -0.62585392604156
C           -2.67880666981233        0.84765449315783        0.29527676935311
C           -1.71184178610501       -0.25033317019853       -0.05802055171349
C           -1.70406203181942       -0.79909364240237       -1.30950353628520
C           -1.03193817401078       -1.98465289093548       -1.60967188535247
C           -0.45093781057741       -2.71931333800047       -0.56652479578197
C           -0.42758426771554       -2.23121080383690        0.69701996104337
C           -0.89089273007098       -0.85522869323207        1.03527222966541
C            0.38517910967886       -0.04632776937455        1.48771221515010
C            0.06203779027291        1.34193475996987        2.03799867024977
C            1.44883976255530        0.03050470054664        0.42444747305947
C            1.32192273594703        0.82994655817730       -0.70347514759859
C            2.35356445615706        0.93130282861005       -1.61908978810446
C            3.53155989289168        0.23046913140783       -1.42895760541528
C            3.66530503886829       -0.58015758992960       -0.31614861160538
C            2.63310501385867       -0.67604666805652        0.59757462257733
H           -3.32634854702659        2.82501202464260       -0.27231995148492
H           -1.63361639413984        2.50350788537200       -0.64540095008326
H           -2.90378454012321        1.80116490958612       -1.64248425462829
H           -3.69278180877083        0.43111886190081        0.24486838701913
H           -2.51608280614611        1.16771703148526        1.32367044108323
H           -2.29313007627517       -0.33901034166120       -2.09558603342230
H           -1.03743433850549       -2.37434245787277       -2.61565450333502
H           -0.06157093283296       -3.70679934597860       -0.77542462868470
H           -0.01469968777309       -2.81174039977596        1.50881444011625
H           -1.50845058561178       -0.88977739044713        1.94912589489590
H            0.80076519413235       -0.63479116425681        2.31464382598880
H            0.96747933451204        1.78008169780404        2.45401780379970
H           -0.67865925900104        1.27365591644165        2.83239929911644
H           -0.30747574265110        2.00593553747321        1.26434817796207
H            0.41068718215338        1.38191239954616       -0.87332690359824
H            2.24277600358206        1.56871845683594       -2.48415576329722
H            4.33946569028663        0.31521936269602       -2.14075897455967
H            4.57986596193492       -1.13195836051780       -0.15425361253529
H            2.75699282632216       -1.30317364958843        1.46922121244697
35
 energy: -43.876690531807 gnorm: 0.004621284204 xtb: 6.7.1 (edcfbbe)
C           -2.61790527853603        2.07037907874909       -0.62818874446208
C           -2.67368962982613        0.85088864379230        0.29327150297963
C           -1.70546034506448       -0.24717170873588       -0.05256701515914
C           -1.67820057728858       -0.78173156967842       -1.31175742578316
C           -1.00782583361580       -1.96855137192972       -1.60980801580516
C           -0.42697096803075       -2.70765812530734       -0.56836147954395
C           -0.41935124201364       -2.23194064592046        0.69985569186536
C           -0.89913444563200       -0.86209357583471        1.04650328675105
C            0.38009046856987       -0.04910929039932        1.50089423232986
C            0.06173565459584        1.34421929518579        2.03922807497985
C            1.43601616899821        0.02009095223061        0.43189821400603
C            1.29509000563139        0.81162811571159       -0.70133876029857
C            2.32177598173703        0.91573248529469       -1.62248999945019
C            3.50623078814964        0.22430634446340       -1.43289261873671
C            3.64940073740825       -0.58711699868475       -0.32089062253126
C            2.62217784123541       -0.68621292756193        0.59906259665712
H           -3.32082767101873        2.82635470031148       -0.28459847034938
H           -1.62253306437186        2.50893311283288       -0.63686714343173
H           -2.87940638203218        1.80129248605192       -1.64792593853424
H           -3.68652236939650        0.43328880488536        0.23621275670398
H           -2.52085085624006        1.17110337478799        1.32374347063946
H           -2.25371663013935       -0.30684594881214       -2.09634998093689
H           -1.01945024459631       -2.35988455216617       -2.61370569936523
H           -0.01504213282704       -3.68578810006173       -0.77938399018630
H            0.00611353287489       -2.81275111580868        1.50510148434627
H           -1.51863328102839       -0.90084323956120        1.95673542711464
H            0.79352317339171       -0.63404182671753        2.33087619888911
H            0.97131629096132        1.78586936832971        2.44375133388929
H           -0.67467895629507        1.28907707347155        2.83896470961675
H           -0.30955804394266        1.99981075005760        1.25877974782683
H            0.37623357592810        1.35202163459539       -0.87020864673312
H            2.20194599784936        1.54876957882856       -2.49006267686566
H            4.31297780768181        0.31790584445796       -2.14502472994250
H            4.56668267389973       -1.13594816726986       -0.16298289481584
H            2.74824725298350       -1.31418247958822        1.47032612433545
35
 energy: -43.876874020836 gnorm: 0.004211960760 xtb: 6.7.1 (edcfbbe)
C           -2.60882592962368        2.07280261472738       -0.62923846872345
C           -2.67068939099417        0.85345332558209        0.29179604804157
C           -1.70296717972707       -0.24688426469806       -0.04942134179269
C           -1.66382657055920       -0.77347727455303       -1.31132599854075
C           -0.98436380846319       -1.95520488773847       -1.61032642260982
C           -0.40772466340607       -2.69961183774525       -0.56906055096190
C           -0.41330871554262       -2.23252274872698        0.70174312697782
C           -0.90227457552473       -0.86579791218461        1.05274316715187
C            0.37591154539640       -0.05001254548986        1.51068937179945
C            0.05956853922478        1.34599956975893        2.04193390181286
C            1.42868188320388        0.01411579411140        0.43859727090601
C            1.27727570475855        0.79876439205060       -0.69858343023141
C            2.29791573231210        0.90226066830051       -1.62657010355863
C            3.48653799699770        0.21752062624717       -1.43859605024762
C            3.63841843846441       -0.59120201942746       -0.32563648164336
C            2.61658320221134       -0.69080364072403        0.60101378112456
H           -3.31635936583510        2.82794695349104       -0.29278950747675
H           -1.61441497704300        2.51454997188702       -0.62890494257957
H           -2.86050397963433        1.80470521119746       -1.65198586105315
H           -3.68403960552408        0.43749742772705        0.23177565545502
H           -2.52289487843056        1.17457822627730        1.32313408342659
H           -2.22793319637375       -0.29151105595570       -2.09829195900872
H           -0.98785197838305       -2.34079738209832       -2.61557812674217
H            0.01087726918088       -3.67317674102834       -0.78253367393101
H            0.01201073682932       -2.81563831035153        1.50537387559620
H           -1.52602451531959       -0.91131937763049        1.95840557104593
H            0.78789231492211       -0.63131059115512        2.34402176658505
H            0.97135790391782        1.79003337622143        2.43975565693006
H           -0.67341630758761        1.29781813581260        2.84529097910089
H           -0.31398780491484        1.99773042109067        1.25933056722706
H            0.35423091665956        1.33242751220102       -0.86530547348755
H            2.16915989459407        1.52889036451825       -2.49786314315511
H            4.28992475304847        0.31372314931999       -2.15425545813118
H            4.55777210599606       -1.13818708902671       -0.17231207852054
H            2.74708850516984       -1.31756006198821        1.47277424921386
35
 energy: -43.877043072994 gnorm: 0.003476427668 xtb: 6.7.1 (edcfbbe)
C           -2.60046185583476        2.07538319438070       -0.62890244974815
C           -2.66812213351421        0.85549442418525        0.29080711679115
C           -1.70025707330067       -0.24630454537067       -0.04802048952698
C           -1.65044773481818       -0.76667077143826       -1.31106137072826
C           -0.95980221020886       -1.94264337800308       -1.61141147790094
C           -0.39307396614904       -2.69324702240338       -0.56851293629896
C           -0.41152762538767       -2.23311811787000        0.70399797754793
C           -0.90352929540901       -0.86753978786804        1.05677096057718
C            0.37168276395476       -0.05041438755060        1.51834329577893
C            0.05623615271288        1.34694983128917        2.04563595064175
C            1.42353962753216        0.01052246276616        0.44463976126484
C            1.26317179715638        0.78830630035677       -0.69583664087313
C            2.27650424971136        0.88837852842961       -1.63198129597967
C            3.46800316512275        0.20855999284453       -1.44674334582707
C            3.62910773815259       -0.59345325286416       -0.33046185543962
C            2.61343989380791       -0.69130944517299        0.60355628095940
H           -3.31264690384079        2.82911061309571       -0.29860227741708
H           -1.60737452466413        2.52049435568073       -0.61915420950129
H           -2.84212157092750        1.80919205006036       -1.65470657155573
H           -3.68255778937964        0.44205125138069        0.22785431094757
H           -2.52327238095465        1.17666907670383        1.32271441136091
H           -2.20931398675149       -0.28564842756641       -2.10012579752364
H           -0.94603045468310       -2.31889193889563       -2.62039707785030
H            0.03048686962919       -3.66317482569130       -0.78568819155559
H            0.00723121754455       -2.81929509898058        1.50885876381396
H           -1.53230248878542       -0.91911027209592        1.95845322038662
H            0.78268262219458       -0.62913486846126        2.35427308928776
H            0.96935509588874        1.79237468954459        2.43910061785127
H           -0.67373358503381        1.30183990347095        2.85170375114474
H           -0.31990507162753        1.99698781748975        1.26312063447847
H            0.33779404732431        1.31796078478304       -0.85934031816866
H            2.13886181182546        1.50765712476862       -2.50728571390719
H            4.26670840623002        0.30366158266471       -2.16787093615983
H            4.55093449600481       -1.13752859860342       -0.18101768015912
H            2.75054069647878       -1.31430924505981        1.47709049328799
35
 energy: -43.877206125933 gnorm: 0.002435106980 xtb: 6.7.1 (edcfbbe)
C           -2.59208407212400        2.07842096038553       -0.62711739823474
C           -2.66615996006513        0.85668251788881        0.28968881298658
C           -1.69779870633792       -0.24588493459122       -0.04708906518238
C           -1.63560645494473       -0.76030942014192       -1.31099693917257
C           -0.93158909230691       -1.92888340589489       -1.61252735364382
C           -0.37731613686236       -2.68553902200969       -0.56736214863251
C           -0.41242819645057       -2.23307137126956        0.70746569936744
C           -0.90492378016094       -0.86784924383412        1.06036818830680
C            0.36719513122266       -0.05117819558464        1.52493806896525
C            0.05212217200374        1.34655153634281        2.05113894915296
C            1.41872547476799        0.00882385183904        0.45008567909673
C            1.24962572656815        0.77876967167632       -0.69397639030370
C            2.25431963291848        0.87228641606858       -1.63972437561417
C            3.44798718532879        0.19599195498649       -1.45821061222127
C            3.61962210137976       -0.59463073892620       -0.33560444771718
C            2.61127659505940       -0.68793129587239        0.60685332148222
H           -3.30986137122965        2.82967462229817       -0.30308250475178
H           -1.60068460154223        2.52705471901256       -0.60581427598257
H           -2.82162444825726        1.81416288425952       -1.65619123576833
H           -3.68153211058102        0.44580069721542        0.22201250731730
H           -2.52416948679114        1.17594213543744        1.32251855591097
H           -2.18862482178244       -0.28007991830131       -2.10504452365642
H           -0.89445358841650       -2.29304719738836       -2.62657609179380
H            0.04840623431809       -3.65340356828966       -0.78784737253013
H           -0.00635089983323       -2.82385461693360        1.51565955330506
H           -1.53865962828805       -0.92275179293574        1.95898820639423
H            0.77822006353127       -0.62879951450695        2.36189223705672
H            0.96598820907041        1.79279627227520        2.44161764075382
H           -0.67540118892225        1.30169908680738        2.85920951406096
H           -0.32668125706910        1.99583808757780        1.26957308334542
H            0.32293029078347        1.30629914172476       -0.85345977225295
H            2.10756407488144        1.48302829518601       -2.51941718075291
H            4.24028374569412        0.28557174376230       -2.18716183056959
H            4.54444268209467       -1.13431524609326       -0.18885569550300
H            2.75704048234390       -1.30406511217102        1.48384919678047
35
 energy: -43.877333561660 gnorm: 0.002207485877 xtb: 6.7.1 (edcfbbe)
C           -2.58535572957193        2.08182995205390       -0.62420100062594
C           -2.66541449737232        0.85666170738100        0.28772670349325
C           -1.69407291984713       -0.24381731371217       -0.04743323650796
C           -1.61741793520110       -0.75200820011182       -1.31280680253849
C           -0.90348030212065       -1.91519632129249       -1.61322587928537
C           -0.36288437860065       -2.67746219024671       -0.56547755364064
C           -0.41530209650216       -2.23253615558808        0.71164224960227
C           -0.90669065346412       -0.86690478425697        1.06321832150536
C            0.36371192419334       -0.05206746213314        1.53014972331244
C            0.04821759802383        1.34494947842522        2.05832568020236
C            1.41409433717021        0.00869594488842        0.45368394142425
C            1.23766733983948        0.77118303309147       -0.69390575762420
C            2.23442270945769        0.85655704687519       -1.64849339001659
C            3.42939798599396        0.18191874974188       -1.47069613223218
C            3.61109135680497       -0.59522135865049       -0.34028778506900
C            2.60958201141848       -0.68228798761935        0.60988397067174
H           -3.30952527515374        2.82929415030017       -0.30583559898478
H           -1.59595234605873        2.53415438790150       -0.58987781682923
H           -2.80168499964338        1.81964576192912       -1.65658265295618
H           -3.68066137192372        0.44649913581544        0.21241017782620
H           -2.52839046740150        1.17183756782846        1.32243282633683
H           -2.16812489956494       -0.27484035860308       -2.11054460838302
H           -0.84554781162267       -2.26931645905473       -2.63086046335364
H            0.06505058198581       -3.64426665614371       -0.78767999610800
H           -0.02328023438153       -2.82843067690566        1.52329597983208
H           -1.54408979852802       -0.92132909114564        1.95986392022230
H            0.77551537668709       -0.63087953858363        2.36599826569930
H            0.96215317436287        1.79129544011203        2.44783925748092
H           -0.67819360625735        1.29814810202122        2.86719782382986
H           -0.33237732406799        1.99446321826482        1.27801267661150
H            0.31049541302326        1.29838017710904       -0.84977134414693
H            2.07972742281417        1.45854857484876       -2.53265311116507
H            4.21464994639925        0.26239542403611       -2.20836306002619
H            4.53852819095373       -1.13052463073483       -0.19474764910584
H            2.76394127815651       -1.28956866784177        1.49156232054756
35
 energy: -43.877426721238 gnorm: 0.002058963948 xtb: 6.7.1 (edcfbbe)
C           -2.58160194387809        2.08501666454403       -0.62090898425646
C           -2.66639260715689        0.85536544770119        0.28482436855391
C           -1.69104891401727       -0.24188855976840       -0.04822244627807
C           -1.60151524372301       -0.74509361408149       -1.31470283606782
C           -0.87992414376496       -1.90398719739557       -1.61300731931000
C           -0.35078933889174       -2.67057104366979       -0.56302685443052
C           -0.41842191730215       -2.23178291696237        0.71566944828791
C           -0.90839537632952       -0.86530101126170        1.06519438718598
C            0.36202139352875       -0.05229620418117        1.53344342827503
C            0.04521376228760        1.34288820302626        2.06612264937097
C            1.41097420013321        0.01092056526756        0.45567758860890
C            1.22946066079050        0.76723261644591       -0.69503309369106
C            2.21976658986713        0.84340328076286       -1.65694988850406
C            3.41483695039620        0.16815923129002       -1.48235862573377
C            3.60449424542198       -0.59643723844210       -0.34470597747386
C            2.60866703429449       -0.67590697153977        0.61189991872883
H           -3.31199394081057        2.82813639014024       -0.30701495221750
H           -1.59438844633293        2.54094237456534       -0.57390733591068
H           -2.78556717284643        1.82564418265860       -1.65638046171294
H           -3.68053084595100        0.44429471340384        0.20038726545225
H           -2.53630457198704        1.16557061439491        1.32197155937667
H           -2.14744819847756       -0.26716884233460       -2.11699146816460
H           -0.80778108853332       -2.25163695965820       -2.63197954141737
H            0.07822134974437       -3.63733708207516       -0.78481319628912
H           -0.03890826819413       -2.83219920938196        1.52996418094308
H           -1.54794854776378       -0.91688988462796        1.96056734520796
H            0.77502003461755       -0.63366027983130        2.36686539286515
H            0.95834708018048        1.78890056742473        2.45728407732512
H           -0.68167089163131        1.29224935194013        2.87434151518422
H           -0.33606507083619        1.99380249622084        1.28737169439195
H            0.30272552004690        1.29578969284127       -0.84838734225605
H            2.05962099062384        1.43818716307398       -2.54480852964192
H            4.19409173447610        0.23892465684326       -2.22738641817187
H            4.53366568796711       -1.12851442523751       -0.19914855641120
H            2.76936929405279       -1.27495677209653        1.49794900817980
35
 energy: -43.877498915412 gnorm: 0.001613091191 xtb: 6.7.1 (edcfbbe)
C           -2.58014219865889        2.08812329348772       -0.61732981040671
C           -2.66855479828557        0.85315484173333        0.28097353322216
C           -1.68736208531591       -0.23920825806033       -0.04969111990274
C           -1.58578610109593       -0.73795400548585       -1.31722963899328
C           -0.85985816540281       -1.89475565181498       -1.61237148977998
C           -0.34085956316094       -2.66482724665783       -0.55999757249828
C           -0.42097278188318       -2.23057211299194        0.71945052388530
C           -0.90979970096442       -0.86315116299247        1.06671435476551
C            0.36178927587334       -0.05153111499893        1.53571252100289
C            0.04267347679310        1.34108848814659        2.07409741807485
C            1.40872014017665        0.01409574333669        0.45631817419067
C            1.22409990857302        0.76595661419316       -0.69678589997679
C            2.20948613473580        0.83306057193167       -1.66441491399255
C            3.40367997198305        0.15544322220569       -1.49259351409172
C            3.59918206422052       -0.59884431873048       -0.34916620919198
C            2.60772006422696       -0.67066004398806        0.61239855525509
H           -3.31717113315727        2.82606159542998       -0.30701463875797
H           -1.59553482222479        2.54814457484993       -0.55749633603713
H           -2.77209356660230        1.83263251068490       -1.65598960349696
H           -3.68064062207474        0.43944927760114        0.18570637107943
H           -2.54769450366126        1.15789770921421        1.32103193563980
H           -2.12853390170908       -0.26011784408961       -2.12187315115251
H           -0.77899580670416       -2.23935992705735       -2.63113470164870
H            0.08897134612274       -3.63192166858747       -0.77996146974974