
                                 *****************
                                 * O   R   C   A *
                                 *****************

                                            #,                                       
                                            ###                                      
                                            ####                                     
                                            #####                                    
                                            ######                                   
                                           ########,                                 
                                     ,,################,,,,,                         
                               ,,#################################,,                 
                          ,,##########################################,,             
                       ,#########################################, ''#####,          
                    ,#############################################,,   '####,        
                  ,##################################################,,,,####,       
                ,###########''''           ''''###############################       
              ,#####''   ,,,,##########,,,,          '''####'''          '####       
            ,##' ,,,,###########################,,,                        '##       
           ' ,,###''''                  '''############,,,                           
         ,,##''                                '''############,,,,        ,,,,,,###''
      ,#''                                            '''#######################'''  
     '                                                          ''''####''''         
             ,#######,   #######,   ,#######,      ##                                
            ,#'     '#,  ##    ##  ,#'     '#,    #''#        ######   ,####,        
            ##       ##  ##   ,#'  ##            #'  '#       #        #'  '#        
            ##       ##  #######   ##           ,######,      #####,   #    #        
            '#,     ,#'  ##    ##  '#,     ,#' ,#      #,         ##   #,  ,#        
             '#######'   ##     ##  '#######'  #'      '#     #####' # '####'        



                  #######################################################
                  #                        -***-                        #
                  #          Department of theory and spectroscopy      #
                  #    Directorship and core code : Frank Neese         #
                  #        Max Planck Institute fuer Kohlenforschung    #
                  #                Kaiser Wilhelm Platz 1               #
                  #                 D-45470 Muelheim/Ruhr               #
                  #                      Germany                        #
                  #                                                     #
                  #                  All rights reserved                #
                  #                        -***-                        #
                  #######################################################


                         Program Version 5.0.1 -  RELEASE  -


 With contributions from (in alphabetic order):
   Daniel Aravena         : Magnetic Suceptibility
   Michael Atanasov       : Ab Initio Ligand Field Theory (pilot matlab implementation)
   Alexander A. Auer      : GIAO ZORA, VPT2 properties, NMR spectrum
   Ute Becker             : Parallelization
   Giovanni Bistoni       : ED, misc. LED, open-shell LED, HFLD
   Martin Brehm           : Molecular dynamics
   Dmytro Bykov           : SCF Hessian
   Vijay G. Chilkuri      : MRCI spin determinant printing, contributions to CSF-ICE
   Dipayan Datta          : RHF DLPNO-CCSD density
   Achintya Kumar Dutta   : EOM-CC, STEOM-CC
   Dmitry Ganyushin       : Spin-Orbit,Spin-Spin,Magnetic field MRCI
   Miquel Garcia          : C-PCM and meta-GGA Hessian, CC/C-PCM, Gaussian charge scheme
   Yang Guo               : DLPNO-NEVPT2, F12-NEVPT2, CIM, IAO-localization
   Andreas Hansen         : Spin unrestricted coupled pair/coupled cluster methods
   Benjamin Helmich-Paris : MC-RPA, TRAH-SCF, COSX integrals
   Lee Huntington         : MR-EOM, pCC
   Robert Izsak           : Overlap fitted RIJCOSX, COSX-SCS-MP3, EOM
   Marcus Kettner         : VPT2
   Christian Kollmar      : KDIIS, OOCD, Brueckner-CCSD(T), CCSD density, CASPT2, CASPT2-K
   Simone Kossmann        : Meta GGA functionals, TD-DFT gradient, OOMP2, MP2 Hessian
   Martin Krupicka        : Initial AUTO-CI
   Lucas Lang             : DCDCAS
   Marvin Lechner         : AUTO-CI (C++ implementation), FIC-MRCC
   Dagmar Lenk            : GEPOL surface, SMD
   Dimitrios Liakos       : Extrapolation schemes; Compound Job, initial MDCI parallelization
   Dimitrios Manganas     : Further ROCIS development; embedding schemes
   Dimitrios Pantazis     : SARC Basis sets
   Anastasios Papadopoulos: AUTO-CI, single reference methods and gradients
   Taras Petrenko         : DFT Hessian,TD-DFT gradient, ASA, ECA, R-Raman, ABS, FL, XAS/XES, NRVS
   Peter Pinski           : DLPNO-MP2, DLPNO-MP2 Gradient
   Christoph Reimann      : Effective Core Potentials
   Marius Retegan         : Local ZFS, SOC
   Christoph Riplinger    : Optimizer, TS searches, QM/MM, DLPNO-CCSD(T), (RO)-DLPNO pert. Triples
   Tobias Risthaus        : Range-separated hybrids, TD-DFT gradient, RPA, STAB
   Michael Roemelt        : Original ROCIS implementation
   Masaaki Saitow         : Open-shell DLPNO-CCSD energy and density
   Barbara Sandhoefer     : DKH picture change effects
   Avijit Sen             : IP-ROCIS
   Kantharuban Sivalingam : CASSCF convergence, NEVPT2, FIC-MRCI
   Bernardo de Souza      : ESD, SOC TD-DFT
   Georgi Stoychev        : AutoAux, RI-MP2 NMR, DLPNO-MP2 response
   Willem Van den Heuvel  : Paramagnetic NMR
   Boris Wezisla          : Elementary symmetry handling
   Frank Wennmohs         : Technical directorship


 We gratefully acknowledge several colleagues who have allowed us to
 interface, adapt or use parts of their codes:
   Stefan Grimme, W. Hujo, H. Kruse, P. Pracht,  : VdW corrections, initial TS optimization,
                  C. Bannwarth, S. Ehlert          DFT functionals, gCP, sTDA/sTD-DF
   Ed Valeev, F. Pavosevic, A. Kumar             : LibInt (2-el integral package), F12 methods
   Garnet Chan, S. Sharma, J. Yang, R. Olivares  : DMRG
   Ulf Ekstrom                                   : XCFun DFT Library
   Mihaly Kallay                                 : mrcc  (arbitrary order and MRCC methods)
   Jiri Pittner, Ondrej Demel                    : Mk-CCSD
   Frank Weinhold                                : gennbo (NPA and NBO analysis)
   Christopher J. Cramer and Donald G. Truhlar   : smd solvation model
   Lars Goerigk                                  : TD-DFT with DH, B97 family of functionals
   V. Asgeirsson, H. Jonsson                     : NEB implementation
   FAccTs GmbH                                   : IRC, NEB, NEB-TS, DLPNO-Multilevel, CI-OPT
                                                   MM, QMMM, 2- and 3-layer-ONIOM, Crystal-QMMM,
                                                   LR-CPCM, SF, NACMEs, symmetry and pop. for TD-DFT,
                                                   nearIR, NL-DFT gradient (VV10), updates on ESD,
                                                   ML-optimized integration grids
   S Lehtola, MJT Oliveira, MAL Marques          : LibXC Library
   Liviu Ungur et al                             : ANISO software


 Your calculation uses the libint2 library for the computation of 2-el integrals
 For citations please refer to: http://libint.valeyev.net

 Your ORCA version has been built with support for libXC version: 5.1.0
 For citations please refer to: https://tddft.org/programs/libxc/

 This ORCA versions uses:
   CBLAS   interface :  Fast vector & matrix operations
   LAPACKE interface :  Fast linear algebra routines
   SCALAPACK package :  Parallel linear algebra routines
   Shared memory     :  Shared parallel matrices
   BLAS/LAPACK       :  OpenBLAS 0.3.15  USE64BITINT DYNAMIC_ARCH NO_AFFINITY Zen SINGLE_THREADED
        Core in use  :  Zen
   Copyright (c) 2011-2014, The OpenBLAS Project


XCFun DFT library Copyright 2009-2010 Ulf Ekstrom and contributors.
See http://admol.org/xcfun for more information.
This is free software; see the source code for copying conditions.
There is ABSOLUTELY NO WARRANTY; not even for MERCHANTABILITY or FITNESS FOR A PARTICULAR PURPOSE.
For details see the documentation.
Scientific users of this library should cite U. Ekstrom, L. Visscher, R. Bast, A. J. Thorvaldsen and K. Ruud;
J.Chem.Theor.Comp. 2010, DOI: 10.1021/ct100117s
XCFun Version 0.99 

================================================================================

----- Orbital basis set information -----
Your calculation utilizes the basis: def2-SVP
   F. Weigend and R. Ahlrichs, Phys. Chem. Chem. Phys. 7, 3297 (2005).

----- AuxJ basis set information -----
Your calculation utilizes the auxiliary basis: def2/J
   F. Weigend, Phys. Chem. Chem. Phys. 8, 1057 (2006).

================================================================================
                                        WARNINGS
                       Please study these warnings very carefully!
================================================================================


WARNING: The environment variable RSH_COMMAND is not set!
  ===> : All Displacements for the Numerical Hessian calculation
         will be started on localhost

WARNING: Geometry Optimization
  ===> : Switching off AutoStart
         For restart on a previous wavefunction, please use MOREAD

WARNING: Minnesota functionals are quite sensitive to the integration grid.
         see SE Wheeler, KN Houk, JCTC 2010, 6, 395,
             N Mardirossian, M Head-Gordon, JCTC 2016, 12, 4303.
         DEFGRID3 seems to be a minimum grid for reliable results with these functionals!
  ===> : Please increase the integration grid!


INFO   : the flag for use of the SHARK integral package has been found!

================================================================================
                                       INPUT FILE
================================================================================
NAME = orca_opt.inp
|  1> ! m062x def2-svp OptTS TightSCF TightOpt NumFreq CHELPG
|  2> 
|  3> 
|  4> %MaxCore 1900
|  5> 
|  6> %pal
|  7>  nprocs 32
|  8> end
|  9> 
| 10> %scf
| 11>  MaxIter 150
| 12> end
| 13> 
| 14> 
| 15> %geom
| 16>  MaxIter 150
| 17>  Calc_Hess true
| 18>  Recalc_Hess 5
| 19> end
| 20> 
| 21> * xyz 1 1
| 22>   C   -2.68467562042402     -1.66592155034531     -0.81935726538946
| 23>   C   -1.53623637150601     -1.54673614364361      0.19642218446619
| 24>   C   -1.42680487843030     -0.15745796826618      0.74544505887772
| 25>   C   -2.02011212472960      0.17919941478270      1.95123530378129
| 26>   C   -1.96493461707970      1.48541509100843      2.46751758780434
| 27>   C   -1.32350156626656      2.50904384893877      1.78039228466899
| 28>   C   -0.69679570687987      2.21243560897930      0.57123949083718
| 29>   C   -0.75417629345702      0.88859583860777     -0.01568154635696
| 30>   C   0.14459965683447      0.52278436787128     -1.19681852229844
| 31>   C   0.57775883512703      1.72747242186941     -2.03692690046257
| 32>   C   1.35094144436591     -0.26230725114066     -0.69881403264709
| 33>   C   1.94688597063359     -0.00496654255395      0.53920031926783
| 34>   C   3.07679936252146     -0.71969629348913      0.94019625693889
| 35>   C   3.61924589794024     -1.69612532263974      0.10713762669899
| 36>   C   3.02996030847738     -1.95696656269877     -1.13009339521383
| 37>   C   1.90180972561401     -1.24423939495420     -1.52907604560632
| 38>   H   -2.55150287962271     -0.98301564009117     -1.67133662280278
| 39>   H   -2.72699905167840     -2.68976020864396     -1.21151578990508
| 40>   H   -3.65100736914617     -1.44018058171272     -0.34829743600316
| 41>   H   -1.71755357965920     -2.23668912394743      1.03187817069769
| 42>   H   -0.58343015794551     -1.84239684206119     -0.26428300384583
| 43>   H   -2.53591818797347     -0.59779976004754      2.51857677753193
| 44>   H   -2.45102953377661      1.69919926173010      3.42159349361009
| 45>   H   -1.29930508239734      3.52610287198823      2.17007068351454
| 46>   H   -0.19913322159403      2.99849743929864     -0.00022446185054
| 47>   H   -1.65271981310572      1.56797030439317     -0.38838202245857
| 48>   H   -0.44179865640542     -0.14906568239647     -1.84087744213184
| 49>   H   -0.27955694111637      2.32334691149661     -2.38784374519139
| 50>   H   1.11968485488559      1.36930983851969     -2.92113417396329
| 51>   H   1.27039254218064      2.37513124915290     -1.48089594882900
| 52>   H   1.53569681545836      0.75456089073237      1.21146469182382
| 53>   H   3.53275074936043     -0.51506699357689      1.90969635936944
| 54>   H   4.49982913418016     -2.25710751752107      0.42220215318176
| 55>   H   3.44789053484584     -2.72039185855955     -1.78733159670549
| 56>   H   1.44274582076888     -1.45307412107982     -2.49927849140904
| 57> *
| 58> 
| 59>                          ****END OF INPUT****
================================================================================

                       *****************************
                       * Geometry Optimization Run *
                       *****************************

Geometry optimization settings:
Update method            Update   .... Bofill
Choice of coordinates    CoordSys .... Z-matrix Internals
Initial Hessian          InHess   .... Almoef's Model

Convergence Tolerances:
Energy Change            TolE     ....  1.0000e-06 Eh
Max. Gradient            TolMAXG  ....  1.0000e-04 Eh/bohr
RMS Gradient             TolRMSG  ....  3.0000e-05 Eh/bohr
Max. Displacement        TolMAXD  ....  1.0000e-03 bohr
RMS Displacement         TolRMSD  ....  6.0000e-04 bohr
Strict Convergence                ....  False
------------------------------------------------------------------------------
                        ORCA OPTIMIZATION COORDINATE SETUP
------------------------------------------------------------------------------

The optimization will be done in new redundant internal coordinates
Making redundant internal coordinates   ...  (new redundants) done
Following TS mode number                ...     0
Evaluating the initial hessian          ...  (Is done on the fly) done
Evaluating the coordinates              ...  done
Calculating the B-matrix                .... done
Calculating the G-matrix                .... done
Diagonalizing the G-matrix              .... done
Small eigenvalue found = 6.752e-03
Small eigenvalue found = 9.997e-03
Small eigenvalue found = 1.640e-02
The first mode is                       ....   91
The number of degrees of freedom        ....   99

    -----------------------------------------------------------------
                    Redundant Internal Coordinates


    -----------------------------------------------------------------
         Definition                    Initial Value    d2E/dq (diagonal element)
    -----------------------------------------------------------------
      1. B(C   1,C   0)                  1.5378         0.000000   
      2. B(C   2,C   1)                  1.4978         0.000000   
      3. B(C   3,C   2)                  1.3854         0.000000   
      4. B(C   4,C   3)                  1.4056         0.000000   
      5. B(C   5,C   4)                  1.3897         0.000000   
      6. B(C   6,C   5)                  1.3938         0.000000   
      7. B(C   7,C   2)                  1.4581         0.000000   
      8. B(C   7,C   6)                  1.4492         0.000000   
      9. B(C   8,C   7)                  1.5286         0.000000   
     10. B(C   9,C   8)                  1.5312         0.000000   
     11. B(C  10,C   8)                  1.5230         0.000000   
     12. B(C  11,C  10)                  1.3979         0.000000   
     13. B(C  12,C  11)                  1.3958         0.000000   
     14. B(C  13,C  12)                  1.3934         0.000000   
     15. B(C  14,C  13)                  1.3950         0.000000   
     16. B(C  15,C  14)                  1.3928         0.000000   
     17. B(C  15,C  10)                  1.3989         0.000000   
     18. B(H  16,C   0)                  1.1000         0.000000   
     19. B(H  17,C   0)                  1.0972         0.000000   
     20. B(H  18,C   0)                  1.0985         0.000000   
     21. B(H  19,C   1)                  1.0986         0.000000   
     22. B(H  20,C   1)                  1.0989         0.000000   
     23. B(H  21,C   3)                  1.0916         0.000000   
     24. B(H  22,C   4)                  1.0919         0.000000   
     25. B(H  23,C   5)                  1.0894         0.000000   
     26. B(H  24,C   6)                  1.0918         0.000000   
     27. B(H  25,C   7)                  1.1865         0.000000   
     28. B(H  26,C   8)                  1.1000         0.000000   
     29. B(H  27,C   9)                  1.1015         0.000000   
     30. B(H  28,C   9)                  1.0972         0.000000   
     31. B(H  29,C   9)                  1.0993         0.000000   
     32. B(H  30,C  11)                  1.0945         0.000000   
     33. B(H  31,C  12)                  1.0907         0.000000   
     34. B(H  32,C  13)                  1.0906         0.000000   
     35. B(H  33,C  14)                  1.0906         0.000000   
     36. B(H  34,C  15)                  1.0935         0.000000   
     37. A(C   1,C   0,H  18)          110.9634         0.000000   
     38. A(H  16,C   0,H  17)          107.8883         0.000000   
     39. A(H  17,C   0,H  18)          108.1257         0.000000   
     40. A(H  16,C   0,H  18)          108.1234         0.000000   
     41. A(C   1,C   0,H  16)          111.9054         0.000000   
     42. A(C   1,C   0,H  17)          109.7072         0.000000   
     43. A(C   2,C   1,H  19)          108.4108         0.000000   
     44. A(H  19,C   1,H  20)          107.0355         0.000000   
     45. A(C   2,C   1,H  20)          109.8700         0.000000   
     46. A(C   0,C   1,H  19)          109.2924         0.000000   
     47. A(C   0,C   1,C   2)          111.6268         0.000000   
     48. A(C   0,C   1,H  20)          110.4718         0.000000   
     49. A(C   1,C   2,C   7)          120.5169         0.000000   
     50. A(C   1,C   2,C   3)          120.8729         0.000000   
     51. A(C   3,C   2,C   7)          118.5264         0.000000   
     52. A(C   2,C   3,C   4)          121.9171         0.000000   
     53. A(C   4,C   3,H  21)          119.2811         0.000000   
     54. A(C   2,C   3,H  21)          118.7989         0.000000   
     55. A(C   3,C   4,C   5)          121.3982         0.000000   
     56. A(C   3,C   4,H  22)          119.0388         0.000000   
     57. A(C   5,C   4,H  22)          119.5562         0.000000   
     58. A(C   4,C   5,C   6)          118.6656         0.000000   
     59. A(C   6,C   5,H  23)          119.9322         0.000000   
     60. A(C   4,C   5,H  23)          121.4015         0.000000   
     61. A(C   7,C   6,H  24)          117.6274         0.000000   
     62. A(C   5,C   6,H  24)          120.3830         0.000000   
     63. A(C   5,C   6,C   7)          121.8640         0.000000   
     64. A(C   6,C   7,H  25)           68.5410         0.000000   
     65. A(C   6,C   7,C   8)          120.5468         0.000000   
     66. A(C   8,C   7,H  25)          109.8509         0.000000   
     67. A(C   2,C   7,H  25)          103.0264         0.000000   
     68. A(C   2,C   7,C   8)          120.1918         0.000000   
     69. A(C   2,C   7,C   6)          117.5293         0.000000   
     70. A(C   9,C   8,C  10)          111.1546         0.000000   
     71. A(C   7,C   8,C  10)          109.6583         0.000000   
     72. A(C  10,C   8,H  26)          107.3882         0.000000   
     73. A(C   9,C   8,H  26)          108.0639         0.000000   
     74. A(C   7,C   8,H  26)          106.5665         0.000000   
     75. A(C   7,C   8,C   9)          113.7020         0.000000   
     76. A(H  27,C   9,H  29)          109.4415         0.000000   
     77. A(H  28,C   9,H  29)          106.7833         0.000000   
     78. A(H  27,C   9,H  28)          107.7159         0.000000   
     79. A(C   8,C   9,H  28)          108.9687         0.000000   
     80. A(C   8,C   9,H  27)          112.3482         0.000000   
     81. A(C   8,C   9,H  29)          111.3616         0.000000   
     82. A(C   8,C  10,C  11)          122.1654         0.000000   
     83. A(C  11,C  10,C  15)          119.1417         0.000000   
     84. A(C   8,C  10,C  15)          118.6632         0.000000   
     85. A(C  12,C  11,H  30)          118.8817         0.000000   
     86. A(C  10,C  11,H  30)          120.7687         0.000000   
     87. A(C  10,C  11,C  12)          120.3491         0.000000   
     88. A(C  13,C  12,H  31)          120.0086         0.000000   
     89. A(C  11,C  12,H  31)          119.8462         0.000000   
     90. A(C  11,C  12,C  13)          120.1447         0.000000   
     91. A(C  14,C  13,H  32)          120.0741         0.000000   
     92. A(C  12,C  13,H  32)          120.1363         0.000000   
     93. A(C  12,C  13,C  14)          119.7893         0.000000   
     94. A(C  15,C  14,H  33)          119.7334         0.000000   
     95. A(C  13,C  14,H  33)          120.2308         0.000000   
     96. A(C  13,C  14,C  15)          120.0357         0.000000   
     97. A(C  14,C  15,H  34)          119.7684         0.000000   
     98. A(C  10,C  15,H  34)          119.6921         0.000000   
     99. A(C  10,C  15,C  14)          120.5394         0.000000   
    100. D(H  19,C   1,C   0,H  17)    -60.9091         0.000000   
    101. D(C   2,C   1,C   0,H  17)    179.1742         0.000000   
    102. D(H  19,C   1,C   0,H  18)     58.5051         0.000000   
    103. D(H  19,C   1,C   0,H  16)    179.3754         0.000000   
    104. D(H  20,C   1,C   0,H  16)    -63.1083         0.000000   
    105. D(H  20,C   1,C   0,H  17)     56.6072         0.000000   
    106. D(C   2,C   1,C   0,H  16)     59.4587         0.000000   
    107. D(C   2,C   1,C   0,H  18)    -61.4116         0.000000   
    108. D(H  20,C   1,C   0,H  18)    176.0214         0.000000   
    109. D(C   7,C   2,C   1,H  19)    159.0417         0.000000   
    110. D(C   3,C   2,C   1,H  20)   -140.9888         0.000000   
    111. D(C   7,C   2,C   1,C   0)    -80.5239         0.000000   
    112. D(C   3,C   2,C   1,H  19)    -24.3341         0.000000   
    113. D(C   3,C   2,C   1,C   0)     96.1003         0.000000   
    114. D(C   7,C   2,C   1,H  20)     42.3869         0.000000   
    115. D(H  21,C   3,C   2,C   7)    179.2278         0.000000   
    116. D(H  21,C   3,C   2,C   1)      2.5378         0.000000   
    117. D(C   4,C   3,C   2,C   7)     -1.3943         0.000000   
    118. D(C   4,C   3,C   2,C   1)   -178.0844         0.000000   
    119. D(H  22,C   4,C   3,H  21)     -0.7598         0.000000   
    120. D(H  22,C   4,C   3,C   2)    179.8652         0.000000   
    121. D(C   5,C   4,C   3,C   2)      0.8226         0.000000   
    122. D(C   5,C   4,C   3,H  21)   -179.8025         0.000000   
    123. D(H  23,C   5,C   4,H  22)     -0.3824         0.000000   
    124. D(H  23,C   5,C   4,C   3)    178.6554         0.000000   
    125. D(C   6,C   5,C   4,C   3)     -1.6402         0.000000   
    126. D(C   6,C   5,C   4,H  22)    179.3221         0.000000   
    127. D(H  24,C   6,C   5,H  23)     -1.3324         0.000000   
    128. D(H  24,C   6,C   5,C   4)    178.9587         0.000000   
    129. D(C   7,C   6,C   5,C   4)      3.1298         0.000000   
    130. D(C   7,C   6,C   5,H  23)   -177.1613         0.000000   
    131. D(H  25,C   7,C   6,C   5)     90.2375         0.000000   
    132. D(C   8,C   7,C   6,H  24)     15.3499         0.000000   
    133. D(C   8,C   7,C   6,C   5)   -168.7112         0.000000   
    134. D(C   2,C   7,C   6,H  24)   -179.6137         0.000000   
    135. D(C   2,C   7,C   6,C   5)     -3.6748         0.000000   
    136. D(H  25,C   7,C   2,C   3)    -69.6474         0.000000   
    137. D(H  25,C   7,C   2,C   1)    107.0549         0.000000   
    138. D(C   8,C   7,C   2,C   3)    167.8152         0.000000   
    139. D(C   8,C   7,C   2,C   1)    -15.4825         0.000000   
    140. D(C   6,C   7,C   2,C   3)      2.7233         0.000000   
    141. D(H  25,C   7,C   6,H  24)    -85.7014         0.000000   
    142. D(C   6,C   7,C   2,C   1)    179.4256         0.000000   
    143. D(H  26,C   8,C   7,H  25)    -68.2055         0.000000   
    144. D(H  26,C   8,C   7,C   6)   -144.4034         0.000000   
    145. D(H  26,C   8,C   7,C   2)     50.9579         0.000000   
    146. D(C  10,C   8,C   7,H  25)    175.8595         0.000000   
    147. D(C  10,C   8,C   7,C   6)     99.6616         0.000000   
    148. D(C  10,C   8,C   7,C   2)    -64.9771         0.000000   
    149. D(C   9,C   8,C   7,H  25)     50.7352         0.000000   
    150. D(C   9,C   8,C   7,C   2)    169.8986         0.000000   
    151. D(C   9,C   8,C   7,C   6)    -25.4627         0.000000   
    152. D(H  29,C   9,C   8,H  26)   -173.0764         0.000000   
    153. D(H  29,C   9,C   8,C  10)    -55.4787         0.000000   
    154. D(H  29,C   9,C   8,C   7)     68.8424         0.000000   
    155. D(H  28,C   9,C   8,H  26)    -55.5412         0.000000   
    156. D(H  28,C   9,C   8,C  10)     62.0564         0.000000   
    157. D(H  28,C   9,C   8,C   7)   -173.6225         0.000000   
    158. D(H  27,C   9,C   8,H  26)     63.7473         0.000000   
    159. D(H  27,C   9,C   8,C  10)   -178.6550         0.000000   
    160. D(H  27,C   9,C   8,C   7)    -54.3340         0.000000   
    161. D(C  11,C  10,C   8,C   9)     92.0578         0.000000   
    162. D(C  11,C  10,C   8,C   7)    -34.5217         0.000000   
    163. D(C  15,C  10,C   8,H  26)     32.0638         0.000000   
    164. D(C  15,C  10,C   8,C   9)    -85.9435         0.000000   
    165. D(C  15,C  10,C   8,C   7)    147.4770         0.000000   
    166. D(C  11,C  10,C   8,H  26)   -149.9349         0.000000   
    167. D(H  30,C  11,C  10,C  15)   -179.7536         0.000000   
    168. D(H  30,C  11,C  10,C   8)      2.2544         0.000000   
    169. D(C  12,C  11,C  10,C  15)     -0.0116         0.000000   
    170. D(C  12,C  11,C  10,C   8)   -178.0037         0.000000   
    171. D(H  31,C  12,C  11,H  30)     -0.0011         0.000000   
    172. D(H  31,C  12,C  11,C  10)   -179.7479         0.000000   
    173. D(C  13,C  12,C  11,H  30)    179.7604         0.000000   
    174. D(C  13,C  12,C  11,C  10)      0.0136         0.000000   
    175. D(H  32,C  13,C  12,H  31)     -0.0069         0.000000   
    176. D(H  32,C  13,C  12,C  11)   -179.7680         0.000000   
    177. D(C  14,C  13,C  12,H  31)    179.8025         0.000000   
    178. D(C  14,C  13,C  12,C  11)      0.0414         0.000000   
    179. D(H  33,C  14,C  13,H  32)     -0.1223         0.000000   
    180. D(H  33,C  14,C  13,C  12)   -179.9318         0.000000   
    181. D(C  15,C  14,C  13,H  32)    179.7110         0.000000   
    182. D(C  15,C  14,C  13,C  12)     -0.0985         0.000000   
    183. D(H  34,C  15,C  14,C  13)   -179.9288         0.000000   
    184. D(C  10,C  15,C  14,H  33)    179.9353         0.000000   
    185. D(C  10,C  15,C  14,C  13)      0.1012         0.000000   
    186. D(H  34,C  15,C  10,C  11)    179.9841         0.000000   
    187. D(H  34,C  15,C  10,C   8)     -1.9530         0.000000   
    188. D(C  14,C  15,C  10,C  11)     -0.0458         0.000000   
    189. D(H  34,C  15,C  14,H  33)     -0.0946         0.000000   
    190. D(C  14,C  15,C  10,C   8)    178.0171         0.000000   
    -----------------------------------------------------------------

Number of atoms                         .... 35
Number of degrees of freedom            .... 190

         *************************************************************
         *                GEOMETRY OPTIMIZATION CYCLE   1            *
         *************************************************************
---------------------------------
CARTESIAN COORDINATES (ANGSTROEM)
---------------------------------
  C     -2.684676   -1.665922   -0.819357
  C     -1.536236   -1.546736    0.196422
  C     -1.426805   -0.157458    0.745445
  C     -2.020112    0.179199    1.951235
  C     -1.964935    1.485415    2.467518
  C     -1.323502    2.509044    1.780392
  C     -0.696796    2.212436    0.571239
  C     -0.754176    0.888596   -0.015682
  C      0.144600    0.522784   -1.196819
  C      0.577759    1.727472   -2.036927
  C      1.350941   -0.262307   -0.698814
  C      1.946886   -0.004967    0.539200
  C      3.076799   -0.719696    0.940196
  C      3.619246   -1.696125    0.107138
  C      3.029960   -1.956967   -1.130093
  C      1.901810   -1.244239   -1.529076
  H     -2.551503   -0.983016   -1.671337
  H     -2.726999   -2.689760   -1.211516
  H     -3.651007   -1.440181   -0.348297
  H     -1.717554   -2.236689    1.031878
  H     -0.583430   -1.842397   -0.264283
  H     -2.535918   -0.597800    2.518577
  H     -2.451030    1.699199    3.421593
  H     -1.299305    3.526103    2.170071
  H     -0.199133    2.998497   -0.000224
  H     -1.652720    1.567970   -0.388382
  H     -0.441799   -0.149066   -1.840877
  H     -0.279557    2.323347   -2.387844
  H      1.119685    1.369310   -2.921134
  H      1.270393    2.375131   -1.480896
  H      1.535697    0.754561    1.211465
  H      3.532751   -0.515067    1.909696
  H      4.499829   -2.257108    0.422202
  H      3.447891   -2.720392   -1.787332
  H      1.442746   -1.453074   -2.499278

----------------------------
CARTESIAN COORDINATES (A.U.)
----------------------------
  NO LB      ZA    FRAG     MASS         X           Y           Z
   0 C     6.0000    0    12.011   -5.073302   -3.148135   -1.548361
   1 C     6.0000    0    12.011   -2.903066   -2.922908    0.371184
   2 C     6.0000    0    12.011   -2.696270   -0.297552    1.408687
   3 C     6.0000    0    12.011   -3.817459    0.338638    3.687300
   4 C     6.0000    0    12.011   -3.713188    2.807028    4.662932
   5 C     6.0000    0    12.011   -2.501055    4.741406    3.364454
   6 C     6.0000    0    12.011   -1.316753    4.180897    1.079486
   7 C     6.0000    0    12.011   -1.425187    1.679203   -0.029634
   8 C     6.0000    0    12.011    0.273254    0.987919   -2.261659
   9 C     6.0000    0    12.011    1.091806    3.264450   -3.849234
  10 C     6.0000    0    12.011    2.552909   -0.495689   -1.320567
  11 C     6.0000    0    12.011    3.679081   -0.009385    1.018941
  12 C     6.0000    0    12.011    5.814308   -1.360029    1.776713
  13 C     6.0000    0    12.011    6.839384   -3.205212    0.202461
  14 C     6.0000    0    12.011    5.725795   -3.698131   -2.135567
  15 C     6.0000    0    12.011    3.593900   -2.351272   -2.889535
  16 H     1.0000    0     1.008   -4.821642   -1.857630   -3.158368
  17 H     1.0000    0     1.008   -5.153281   -5.082910   -2.289433
  18 H     1.0000    0     1.008   -6.899404   -2.721547   -0.658187
  19 H     1.0000    0     1.008   -3.245706   -4.226730    1.949967
  20 H     1.0000    0     1.008   -1.102523   -3.481625   -0.499422
  21 H     1.0000    0     1.008   -4.792191   -1.129678    4.759420
  22 H     1.0000    0     1.008   -4.631775    3.211021    6.465875
  23 H     1.0000    0     1.008   -2.455331    6.663369    4.100839
  24 H     1.0000    0     1.008   -0.376307    5.666339   -0.000424
  25 H     1.0000    0     1.008   -3.123188    2.963034   -0.733936
  26 H     1.0000    0     1.008   -0.834878   -0.281693   -3.478754
  27 H     1.0000    0     1.008   -0.528286    4.390489   -4.512371
  28 H     1.0000    0     1.008    2.115898    2.587621   -5.520144
  29 H     1.0000    0     1.008    2.400694    4.488348   -2.798488
  30 H     1.0000    0     1.008    2.902046    1.425913    2.289336
  31 H     1.0000    0     1.008    6.675931   -0.973336    3.608803
  32 H     1.0000    0     1.008    8.503445   -4.265315    0.797846
  33 H     1.0000    0     1.008    6.515569   -5.140796   -3.377567
  34 H     1.0000    0     1.008    2.726394   -2.745912   -4.722952

--------------------------------
INTERNAL COORDINATES (ANGSTROEM)
--------------------------------
 C      0   0   0     0.000000000000     0.00000000     0.00000000
 C      1   0   0     1.537831512349     0.00000000     0.00000000
 C      2   1   0     1.497830169573   111.62679090     0.00000000
 C      3   2   1     1.385381462550   120.87292899    96.10029620
 C      4   3   2     1.405628452673   121.91710161   181.91561771
 C      5   4   3     1.389745795081   121.39818788     0.82260692
 C      6   5   4     1.393839001116   118.66562241   358.35982543
 C      7   6   5     1.449248278672   121.86402098     3.12976474
 C      8   7   6     1.528627095429   120.54675687   191.28879086
 C      9   8   7     1.531235536502   113.70195211   334.53726499
 C      9   8   7     1.523035728504   109.65832329    99.66157281
 C     11   9   8     1.397874691892   122.16543251   325.47826269
 C     12  11   9     1.395829728895   120.34910851   181.99633714
 C     13  12  11     1.393430505685   120.14472145     0.00000000
 C     14  13  12     1.395004035854   119.78928605     0.04142645
 C     15  14  13     1.392799665627   120.03567051   359.90152233
 H      1   2   3     1.099983766522   111.90538869    59.45870071
 H      1   2   3     1.097189673398   109.70723784   179.17423876
 H      1   2   3     1.098477763257   110.96344967   298.58839568
 H      2   1   3     1.098588981345   109.29242147   119.91668186
 H      2   1   3     1.098864959732   110.47184414   237.43296418
 H      4   3   2     1.091631787923   118.79891746     2.53776106
 H      5   4   3     1.091903280391   119.03878035   179.86524572
 H      6   5   4     1.089423600224   121.40148197   178.65536985
 H      7   6   5     1.091848066155   120.38298064   178.95868490
 H      8   7   6     1.186522551977    68.54098905    90.23746755
 H      9   8   7     1.100026074251   106.56651303   215.59659915
 H     10   9   8     1.101453303367   112.34818215   305.66602570
 H     10   9   8     1.097172160381   108.96869640   186.37750690
 H     10   9   8     1.099260582337   111.36164761    68.84238378
 H     12  11   9     1.094485189418   120.76873408     2.25438358
 H     13  12  11     1.090731527992   119.84623478   180.25213247
 H     14  13  12     1.090593193986   120.13629420   180.23202282
 H     15  14  13     1.090617215146   120.23075601   180.06818517
 H     16  15  14     1.093455256245   119.76841990   180.07123003

---------------------------
INTERNAL COORDINATES (A.U.)
---------------------------
 C      0   0   0     0.000000000000     0.00000000     0.00000000
 C      1   0   0     2.906080398454     0.00000000     0.00000000
 C      2   1   0     2.830488815618   111.62679090     0.00000000
 C      3   2   1     2.617991555231   120.87292899    96.10029620
 C      4   3   2     2.656252821600   121.91710161   181.91561771
 C      5   4   3     2.626238948472   121.39818788     0.82260692
 C      6   5   4     2.633973986888   118.66562241   358.35982543
 C      7   6   5     2.738682346747   121.86402098     3.12976474
 C      8   7   6     2.888686571253   120.54675687   191.28879086
 C      9   8   7     2.893615810517   113.70195211   334.53726499
 C      9   8   7     2.878120419050   109.65832329    99.66157281
 C     11   9   8     2.641600337215   122.16543251   325.47826269
 C     12  11   9     2.637735917198   120.34910851   181.99633714
 C     13  12  11     2.633202042396   120.14472145     0.00000000
 C     14  13  12     2.636175583478   119.78928605     0.04142645
 C     15  14  13     2.632009927452   120.03567051   359.90152233
 H      1   2   3     2.078668070485   111.90538869    59.45870071
 H      1   2   3     2.073387999688   109.70723784   179.17423876
 H      1   2   3     2.075822136757   110.96344967   298.58839568
 H      2   1   3     2.076032308486   109.29242147   119.91668186
 H      2   1   3     2.076553832055   110.47184414   237.43296418
 H      4   3   2     2.062885118257   118.79891746     2.53776106
 H      5   4   3     2.063398164669   119.03878035   179.86524572
 H      6   5   4     2.058712248254   121.40148197   178.65536985
 H      7   6   5     2.063293824885   120.38298064   178.95868490
 H      8   7   6     2.242202674958    68.54098905    90.23746755
 H      9   8   7     2.078748020507   106.56651303   215.59659915
 H     10   9   8     2.081445092667   112.34818215   305.66602570
 H     10   9   8     2.073354904882   108.96869640   186.37750690
 H     10   9   8     2.077301450431   111.36164761    68.84238378
 H     12  11   9     2.068277265634   120.76873408     2.25438358
 H     13  12  11     2.061183873538   119.84623478   180.25213247
 H     14  13  12     2.060922460152   120.13629420   180.23202282
 H     15  14  13     2.060967853566   120.23075601   180.06818517
 H     16  15  14     2.066330973999   119.76841990   180.07123003

---------------------
BASIS SET INFORMATION
---------------------
There are 2 groups of distinct atoms

 Group   1 Type C   : 7s4p1d contracted to 3s2p1d pattern {511/31/1}
 Group   2 Type H   : 4s1p contracted to 2s1p pattern {31/1}

Atom   0C    basis set group =>   1
Atom   1C    basis set group =>   1
Atom   2C    basis set group =>   1
Atom   3C    basis set group =>   1
Atom   4C    basis set group =>   1
Atom   5C    basis set group =>   1
Atom   6C    basis set group =>   1
Atom   7C    basis set group =>   1
Atom   8C    basis set group =>   1
Atom   9C    basis set group =>   1
Atom  10C    basis set group =>   1
Atom  11C    basis set group =>   1
Atom  12C    basis set group =>   1
Atom  13C    basis set group =>   1
Atom  14C    basis set group =>   1
Atom  15C    basis set group =>   1
Atom  16H    basis set group =>   2
Atom  17H    basis set group =>   2
Atom  18H    basis set group =>   2
Atom  19H    basis set group =>   2
Atom  20H    basis set group =>   2
Atom  21H    basis set group =>   2
Atom  22H    basis set group =>   2
Atom  23H    basis set group =>   2
Atom  24H    basis set group =>   2
Atom  25H    basis set group =>   2
Atom  26H    basis set group =>   2
Atom  27H    basis set group =>   2
Atom  28H    basis set group =>   2
Atom  29H    basis set group =>   2
Atom  30H    basis set group =>   2
Atom  31H    basis set group =>   2
Atom  32H    basis set group =>   2
Atom  33H    basis set group =>   2
Atom  34H    basis set group =>   2
---------------------------------
AUXILIARY/J BASIS SET INFORMATION
---------------------------------
There are 2 groups of distinct atoms

 Group   1 Type C   : 12s5p4d2f1g contracted to 6s4p3d1f1g pattern {711111/2111/211/2/1}
 Group   2 Type H   : 5s2p1d contracted to 3s1p1d pattern {311/2/1}

Atom   0C    basis set group =>   1
Atom   1C    basis set group =>   1
Atom   2C    basis set group =>   1
Atom   3C    basis set group =>   1
Atom   4C    basis set group =>   1
Atom   5C    basis set group =>   1
Atom   6C    basis set group =>   1
Atom   7C    basis set group =>   1
Atom   8C    basis set group =>   1
Atom   9C    basis set group =>   1
Atom  10C    basis set group =>   1
Atom  11C    basis set group =>   1
Atom  12C    basis set group =>   1
Atom  13C    basis set group =>   1
Atom  14C    basis set group =>   1
Atom  15C    basis set group =>   1
Atom  16H    basis set group =>   2
Atom  17H    basis set group =>   2
Atom  18H    basis set group =>   2
Atom  19H    basis set group =>   2
Atom  20H    basis set group =>   2
Atom  21H    basis set group =>   2
Atom  22H    basis set group =>   2
Atom  23H    basis set group =>   2
Atom  24H    basis set group =>   2
Atom  25H    basis set group =>   2
Atom  26H    basis set group =>   2
Atom  27H    basis set group =>   2
Atom  28H    basis set group =>   2
Atom  29H    basis set group =>   2
Atom  30H    basis set group =>   2
Atom  31H    basis set group =>   2
Atom  32H    basis set group =>   2
Atom  33H    basis set group =>   2
Atom  34H    basis set group =>   2


           ************************************************************
           *        Program running with 32 parallel MPI-processes    *
           *              working on a common directory               *
           ************************************************************
------------------------------------------------------------------------------
                           ORCA GTO INTEGRAL CALCULATION
                           -- RI-GTO INTEGRALS CHOSEN --
------------------------------------------------------------------------------
------------------------------------------------------------------------------
                   ___                                                        
                  /   \      - P O W E R E D   B Y -                         
                 /     \                                                     
                 |  |  |   _    _      __       _____    __    __             
                 |  |  |  | |  | |    /  \     |  _  \  |  |  /  |          
                  \  \/   | |  | |   /    \    | | | |  |  | /  /          
                 / \  \   | |__| |  /  /\  \   | |_| |  |  |/  /          
                |  |  |   |  __  | /  /__\  \  |    /   |      \           
                |  |  |   | |  | | |   __   |  |    \   |  |\   \          
                \     /   | |  | | |  |  |  |  | |\  \  |  | \   \       
                 \___/    |_|  |_| |__|  |__|  |_| \__\ |__|  \__/        
                                                                              
                      - O R C A' S   B I G   F R I E N D -                    
                                      &                                       
                       - I N T E G R A L  F E E D E R -                       
                                                                              
 v1 FN, 2020, v2 2021                                                         
------------------------------------------------------------------------------


Reading SHARK input file orca_opt.SHARKINP.tmp ... ok
----------------------
SHARK INTEGRAL PACKAGE
----------------------

Number of atoms                             ...     35
Number of basis functions                   ...    319
Number of shells                            ...    153
Maximum angular momentum                    ...      2
Integral batch strategy                     ... SHARK/LIBINT Hybrid
RI-J (if used) integral strategy            ... SPLIT-RIJ (Revised 2003 algorithm where possible)
Printlevel                                  ...      1
Contraction scheme used                     ... SEGMENTED contraction
Coulomb Range Separation                    ... NOT USED
Exchange Range Separation                   ... NOT USED
Finite Nucleus Model                        ... NOT USED
Auxiliary Coulomb fitting basis             ... AVAILABLE
   # of basis functions in Aux-J            ...    993
   # of shells in Aux-J                     ...    335
   Maximum angular momentum in Aux-J        ...      4
Auxiliary J/K fitting basis                 ... NOT available
Auxiliary Correlation fitting basis         ... NOT available
Auxiliary 'external' fitting basis          ... NOT available
Integral threshold                          ...     2.500000e-11
Primitive cut-off                           ...     2.500000e-12
Primitive pair pre-selection threshold      ...     2.500000e-12

Calculating pre-screening integrals         ... done (  0.2 sec) Dimension = 153
Organizing shell pair data                  ... done (  0.4 sec)
Shell pair information
Total number of shell pairs                 ...     11781
Shell pairs after pre-screening             ...     10093
Total number of primitive shell pairs       ...     41593
Primitive shell pairs kept                  ...     23974
          la=0 lb=0:   3281 shell pairs
          la=1 lb=0:   3782 shell pairs
          la=1 lb=1:   1120 shell pairs
          la=2 lb=0:   1143 shell pairs
          la=2 lb=1:    660 shell pairs
          la=2 lb=2:    107 shell pairs

Calculating one electron integrals          ... done (  0.2 sec)
Calculating RI/J V-Matrix + Cholesky decomp.... done (  1.3 sec)
Calculating Nuclear repulsion               ... done (  0.0 sec) ENN=   1069.341226233458 Eh

SHARK setup successfully completed in   2.6 seconds

Maximum memory used throughout the entire GTOINT-calculation: 17.6 MB


           ************************************************************
           *        Program running with 32 parallel MPI-processes    *
           *              working on a common directory               *
           ************************************************************
-------------------------------------------------------------------------------
                                 ORCA SCF
-------------------------------------------------------------------------------

------------
SCF SETTINGS
------------
Hamiltonian:
 Density Functional     Method          .... DFT(GTOs)
 Exchange Functional    Exchange        .... M062X
 Correlation Functional Correlation     .... M062X
 Gradients option       PostSCFGGA      .... off
 Hybrid DFT is turned on
   Fraction HF Exchange ScalHFX         ....  0.540000
   Scaling of DF-GGA-X  ScalDFX         ....  0.460000
   Scaling of DF-GGA-C  ScalDFC         ....  1.000000
   Scaling of DF-LDA-C  ScalLDAC        ....  1.000000
   Perturbative correction              ....  0.000000
   Density functional embedding theory  .... OFF
 RI-approximation to the Coulomb term is turned on
   Number of AuxJ basis functions       .... 993
   RIJ-COSX (HFX calculated with COS-X)).... on


General Settings:
 Integral files         IntName         .... orca_opt
 Hartree-Fock type      HFTyp           .... RHF
 Total Charge           Charge          ....    1
 Multiplicity           Mult            ....    1
 Number of Electrons    NEL             ....  114
 Basis Dimension        Dim             ....  319
 Nuclear Repulsion      ENuc            ....   1069.3412262335 Eh

Convergence Acceleration:
 DIIS                   CNVDIIS         .... on
   Start iteration      DIISMaxIt       ....    12
   Startup error        DIISStart       ....  0.200000
   # of expansion vecs  DIISMaxEq       ....     5
   Bias factor          DIISBfac        ....   1.050
   Max. coefficient     DIISMaxC        ....  10.000
 Trust-Rad. Augm. Hess. CNVTRAH         .... auto
   Auto Start mean grad. ratio tolernc. ....  1.125000
   Auto Start start iteration           ....    20
   Auto Start num. interpolation iter.  ....    10
   Max. Number of Micro iterations      ....    16
   Max. Number of Macro iterations      .... Maxiter - #DIIS iter
   Number of Davidson start vectors     ....     2
   Converg. threshold I  (grad. norm)   ....   1.000e-05
   Converg. threshold II (energy diff.) ....   1.000e-08
   Grad. Scal. Fac. for Micro threshold ....   0.100
   Minimum threshold for Micro iter.    ....   0.010
   NR start threshold (gradient norm)   ....   0.001
   Initial trust radius                 ....   0.400
   Minimum AH scaling param. (alpha)    ....   1.000
   Maximum AH scaling param. (alpha)    .... 1000.000
   Orbital update algorithm             .... Taylor
   White noise on init. David. guess    .... on
   Maximum white noise                  ....   0.010
   Quad. conv. algorithm                .... NR
 SOSCF                  CNVSOSCF        .... on
   Start iteration      SOSCFMaxIt      ....   150
   Startup grad/error   SOSCFStart      ....  0.003300
 Level Shifting         CNVShift        .... on
   Level shift para.    LevelShift      ....    0.2500
   Turn off err/grad.   ShiftErr        ....    0.0010
 Zerner damping         CNVZerner       .... off
 Static damping         CNVDamp         .... on
   Fraction old density DampFac         ....    0.7000
   Max. Damping (<1)    DampMax         ....    0.9800
   Min. Damping (>=0)   DampMin         ....    0.0000
   Turn off err/grad.   DampErr         ....    0.1000
 Fernandez-Rico         CNVRico         .... off

SCF Procedure:
 Maximum # iterations   MaxIter         ....   150
 SCF integral mode      SCFMode         .... Direct
   Integral package                     .... SHARK and LIBINT hybrid scheme
 Reset frequency        DirectResetFreq ....    20
 Integral Threshold     Thresh          ....  2.500e-11 Eh
 Primitive CutOff       TCut            ....  2.500e-12 Eh

Convergence Tolerance:
 Convergence Check Mode ConvCheckMode   .... Total+1el-Energy
 Convergence forced     ConvForced      .... 0
 Energy Change          TolE            ....  1.000e-08 Eh
 1-El. energy change                    ....  1.000e-05 Eh
 Orbital Gradient       TolG            ....  1.000e-05
 Orbital Rotation angle TolX            ....  1.000e-05
 DIIS Error             TolErr          ....  5.000e-07


Diagonalization of the overlap matrix:
Smallest eigenvalue                        ... 2.586e-04
Time for diagonalization                   ...    0.036 sec
Threshold for overlap eigenvalues          ... 1.000e-08
Number of eigenvalues below threshold      ... 0
Time for construction of square roots      ...    0.320 sec
Total time needed                          ...    0.620 sec

Time for model grid setup =    0.154 sec

------------------------------
INITIAL GUESS: MODEL POTENTIAL
------------------------------
Loading Hartree-Fock densities                     ... done
Calculating cut-offs                               ... done
Initializing the effective Hamiltonian             ... done
Setting up the integral package (SHARK)            ... done
Starting the Coulomb interaction                   ... done (   0.1 sec)
Reading the grid                                   ... done
Mapping shells                                     ... done
Starting the XC term evaluation                    ... done (   0.0 sec)
  promolecular density results
     # of electrons  =    114.976887082
     EX              =    -87.446783740
     EC              =     -3.808573197
     EX+EC           =    -91.255356937
Transforming the Hamiltonian                       ... done (   0.0 sec)
Diagonalizing the Hamiltonian                      ... done (   0.0 sec)
Back transforming the eigenvectors                 ... done (   0.0 sec)
Now organizing SCF variables                       ... done
                      ------------------
                      INITIAL GUESS DONE (   0.3 sec)
                      ------------------
-------------------
DFT GRID GENERATION
-------------------

General Integration Accuracy     IntAcc      ... 4.388
Radial Grid Type                 RadialGrid  ... OptM3 with GC (2021)
Angular Grid (max. ang.)         AngularGrid ... 4 (Lebedev-302)
Angular grid pruning method      GridPruning ... 4 (adaptive)
Weight generation scheme         WeightScheme... Becke
Basis function cutoff            BFCut       ... 1.0000e-11
Integration weight cutoff        WCut        ... 1.0000e-14
Angular grids for H and He will be reduced by one unit
Partially contracted basis set               ... off
Rotationally invariant grid construction     ... off

Total number of grid points                  ...   155559
Total number of batches                      ...     2450
Average number of points per batch           ...       63
Average number of grid points per atom       ...     4445
Time for grid setup =    0.920 sec

--------------------
COSX GRID GENERATION
--------------------

GRIDX 1
-------
General Integration Accuracy     IntAcc      ... 3.816
Radial Grid Type                 RadialGrid  ... OptM3 with GC (2021)
Angular Grid (max. ang.)         AngularGrid ... 1 (Lebedev-50)
Angular grid pruning method      GridPruning ... 4 (adaptive)
Weight generation scheme         WeightScheme... Becke
Basis function cutoff            BFCut       ... 1.0000e-11
Integration weight cutoff        WCut        ... 1.0000e-14
Angular grids for H and He will be reduced by one unit
Partially contracted basis set               ... on
Rotationally invariant grid construction     ... off

Total number of grid points                  ...    19826
Total number of batches                      ...      327
Average number of points per batch           ...       60
Average number of grid points per atom       ...      566
UseSFitting                                  ... on

GRIDX 2
-------
General Integration Accuracy     IntAcc      ... 4.020
Radial Grid Type                 RadialGrid  ... OptM3 with GC (2021)
Angular Grid (max. ang.)         AngularGrid ... 2 (Lebedev-110)
Angular grid pruning method      GridPruning ... 4 (adaptive)
Weight generation scheme         WeightScheme... Becke
Basis function cutoff            BFCut       ... 1.0000e-11
Integration weight cutoff        WCut        ... 1.0000e-14
Angular grids for H and He will be reduced by one unit
Partially contracted basis set               ... on
Rotationally invariant grid construction     ... off

Total number of grid points                  ...    41908
Total number of batches                      ...      672
Average number of points per batch           ...       62
Average number of grid points per atom       ...     1197
UseSFitting                                  ... on

GRIDX 3
-------
General Integration Accuracy     IntAcc      ... 4.338
Radial Grid Type                 RadialGrid  ... OptM3 with GC (2021)
Angular Grid (max. ang.)         AngularGrid ... 3 (Lebedev-194)
Angular grid pruning method      GridPruning ... 4 (adaptive)
Weight generation scheme         WeightScheme... Becke
Basis function cutoff            BFCut       ... 1.0000e-11
Integration weight cutoff        WCut        ... 1.0000e-14
Angular grids for H and He will be reduced by one unit
Partially contracted basis set               ... on
Rotationally invariant grid construction     ... off

Total number of grid points                  ...    91226
Total number of batches                      ...     1441
Average number of points per batch           ...       63
Average number of grid points per atom       ...     2606
UseSFitting                                  ... on

Time for X-Grid setup             =    0.673 sec

--------------
SCF ITERATIONS
--------------
ITER       Energy         Delta-E        Max-DP      RMS-DP      [F,P]     Damp
               ***  Starting incremental Fock matrix formation  ***
  0   -619.8171720598   0.000000000000 0.06952007  0.00145884  0.1533184 0.7000
  1   -619.9386560920  -0.121484032195 0.04628675  0.00110024  0.0879997 0.7000
                               ***Turning on DIIS***
  2   -620.0013559771  -0.062699885046 0.07938002  0.00217518  0.0419828 0.0000
  3   -620.0991999512  -0.097843974154 0.03447599  0.00070295  0.0401955 0.0000
  4   -620.1156572654  -0.016457314239 0.00871472  0.00015252  0.0043211 0.0000
                      *** Initiating the SOSCF procedure ***
                           *** Shutting down DIIS ***
                      *** Re-Reading the Fockian *** 
                      *** Removing any level shift *** 
ITER      Energy       Delta-E        Grad      Rot      Max-DP    RMS-DP
  5   -620.11604040  -0.0003831342  0.000907  0.000907  0.004228  0.000060
               *** Restarting incremental Fock matrix formation ***
  6   -620.11573064   0.0003097605  0.000212  0.000717  0.001009  0.000039
  7   -620.11573400  -0.0000033608  0.000479  0.000950  0.000966  0.000017
  8   -620.11573748  -0.0000034789  0.000066  0.000117  0.000487  0.000008
  9   -620.11573763  -0.0000001521  0.000033  0.000051  0.000080  0.000002
 10   -620.11573774  -0.0000001135  0.000013  0.000045  0.000045  0.000001
 11   -620.11573774   0.0000000075  0.000009  0.000013  0.000014  0.000000
                 **** Energy Check signals convergence ****
              ***Rediagonalizing the Fockian in SOSCF/NRSCF***

               *****************************************************
               *                     SUCCESS                       *
               *           SCF CONVERGED AFTER  12 CYCLES          *
               *****************************************************

Old exchange energy                            =    -48.191183705 Eh
New exchange energy                            =    -48.191384806 Eh
Exchange energy change after final integration =     -0.000201100 Eh
Total energy after final integration           =   -620.115938838 Eh
Final COS-X integration done in                =     2.823 sec

----------------
TOTAL SCF ENERGY
----------------

Total Energy       :         -620.11593884 Eh          -16874.21256 eV

Components:
Nuclear Repulsion  :         1069.34122623 Eh           29098.25409 eV
Electronic Energy  :        -1689.45716507 Eh          -45972.46666 eV
One Electron Energy:        -2940.69869126 Eh          -80020.47955 eV
Two Electron Energy:         1251.24152619 Eh           34048.01290 eV
Max COSX asymmetry :            0.00001418 Eh               0.00039 eV

Virial components:
Potential Energy   :        -1233.15629939 Eh          -33555.88885 eV
Kinetic Energy     :          613.04036055 Eh           16681.67629 eV
Virial Ratio       :            2.01154178


DFT components:
N(Alpha)           :       57.000109974018 electrons
N(Beta)            :       57.000109974018 electrons
N(Total)           :      114.000219948036 electrons
E(XC)              :      -44.983046709520 Eh       
DFET-embed. en.    :        0.000000000000 Eh       

---------------
SCF CONVERGENCE
---------------

  Last Energy change         ...   -3.3424e-10  Tolerance :   1.0000e-08
  Last MAX-Density change    ...    3.9968e-15  Tolerance :   1.0000e-07
  Last RMS-Density change    ...    3.5637e-17  Tolerance :   5.0000e-09
  Last Orbital Gradient      ...    9.2165e-07  Tolerance :   1.0000e-05
  Last Orbital Rotation      ...    3.2693e-06  Tolerance :   1.0000e-05

             **** THE GBW FILE WAS UPDATED (orca_opt.gbw) ****
             **** DENSITY orca_opt.scfp WAS UPDATED ****
             **** ENERGY FILE WAS UPDATED (orca_opt.en.tmp) ****
             **** THE GBW FILE WAS UPDATED (orca_opt.gbw) ****
             **** DENSITY orca_opt.scfp WAS UPDATED ****
----------------
ORBITAL ENERGIES
----------------

  NO   OCC          E(Eh)            E(eV) 
   0   2.0000     -10.786962      -293.5282 
   1   2.0000     -10.774163      -293.1799 
   2   2.0000     -10.765813      -292.9527 
   3   2.0000     -10.758301      -292.7482 
   4   2.0000     -10.742588      -292.3207 
   5   2.0000     -10.738484      -292.2090 
   6   2.0000     -10.721760      -291.7539 
   7   2.0000     -10.701333      -291.1981 
   8   2.0000     -10.688162      -290.8397 
   9   2.0000     -10.685344      -290.7630 
  10   2.0000     -10.682706      -290.6912 
  11   2.0000     -10.676058      -290.5103 
  12   2.0000     -10.671163      -290.3771 
  13   2.0000     -10.667504      -290.2776 
  14   2.0000     -10.665532      -290.2239 
  15   2.0000     -10.662564      -290.1431 
  16   2.0000      -1.170079       -31.8395 
  17   2.0000      -1.083179       -29.4748 
  18   2.0000      -1.057085       -28.7648 
  19   2.0000      -1.053832       -28.6762 
  20   2.0000      -1.000456       -27.2238 
  21   2.0000      -0.973654       -26.4945 
  22   2.0000      -0.945116       -25.7179 
  23   2.0000      -0.933596       -25.4044 
  24   2.0000      -0.888933       -24.1891 
  25   2.0000      -0.880722       -23.9657 
  26   2.0000      -0.834262       -22.7014 
  27   2.0000      -0.823070       -22.3969 
  28   2.0000      -0.799723       -21.7616 
  29   2.0000      -0.776701       -21.1351 
  30   2.0000      -0.749926       -20.4065 
  31   2.0000      -0.736457       -20.0400 
  32   2.0000      -0.719973       -19.5915 
  33   2.0000      -0.696547       -18.9540 
  34   2.0000      -0.691422       -18.8145 
  35   2.0000      -0.665812       -18.1177 
  36   2.0000      -0.659857       -17.9556 
  37   2.0000      -0.650947       -17.7132 
  38   2.0000      -0.639105       -17.3909 
  39   2.0000      -0.622483       -16.9386 
  40   2.0000      -0.621279       -16.9059 
  41   2.0000      -0.604945       -16.4614 
  42   2.0000      -0.600743       -16.3471 
  43   2.0000      -0.596550       -16.2330 
  44   2.0000      -0.586787       -15.9673 
  45   2.0000      -0.583730       -15.8841 
  46   2.0000      -0.566876       -15.4255 
  47   2.0000      -0.560638       -15.2557 
  48   2.0000      -0.551162       -14.9979 
  49   2.0000      -0.547611       -14.9012 
  50   2.0000      -0.535459       -14.5706 
  51   2.0000      -0.533444       -14.5158 
  52   2.0000      -0.512681       -13.9508 
  53   2.0000      -0.511163       -13.9094 
  54   2.0000      -0.485014       -13.1979 
  55   2.0000      -0.419714       -11.4210 
  56   2.0000      -0.414344       -11.2749 
  57   0.0000      -0.217246        -5.9116 
  58   0.0000      -0.166880        -4.5410 
  59   0.0000      -0.090013        -2.4494 
  60   0.0000      -0.087299        -2.3755 
  61   0.0000      -0.082860        -2.2547 
  62   0.0000      -0.040861        -1.1119 
  63   0.0000      -0.028979        -0.7886 
  64   0.0000      -0.013885        -0.3778 
  65   0.0000      -0.003882        -0.1056 
  66   0.0000       0.003320         0.0903 
  67   0.0000       0.010962         0.2983 
  68   0.0000       0.014684         0.3996 
  69   0.0000       0.033046         0.8992 
  70   0.0000       0.037152         1.0109 
  71   0.0000       0.043374         1.1803 
  72   0.0000       0.044967         1.2236 
  73   0.0000       0.047258         1.2860 
  74   0.0000       0.057150         1.5551 
  75   0.0000       0.062706         1.7063 
  76   0.0000       0.069460         1.8901 
  77   0.0000       0.070316         1.9134 
  78   0.0000       0.072006         1.9594 
  79   0.0000       0.085089         2.3154 
  80   0.0000       0.094479         2.5709 
  81   0.0000       0.099395         2.7047 
  82   0.0000       0.109814         2.9882 
  83   0.0000       0.115139         3.1331 
  84   0.0000       0.121944         3.3183 
  85   0.0000       0.137933         3.7534 
  86   0.0000       0.150960         4.1078 
  87   0.0000       0.164754         4.4832 
  88   0.0000       0.169584         4.6146 
  89   0.0000       0.191432         5.2091 
  90   0.0000       0.197408         5.3717 
  91   0.0000       0.216361         5.8875 
  92   0.0000       0.226588         6.1658 
  93   0.0000       0.242724         6.6048 
  94   0.0000       0.249996         6.8027 
  95   0.0000       0.259560         7.0630 
  96   0.0000       0.268299         7.3008 
  97   0.0000       0.280936         7.6446 
  98   0.0000       0.300264         8.1706 
  99   0.0000       0.304147         8.2763 
 100   0.0000       0.312637         8.5073 
 101   0.0000       0.316485         8.6120 
 102   0.0000       0.325953         8.8696 
 103   0.0000       0.337025         9.1709 
 104   0.0000       0.342736         9.3263 
 105   0.0000       0.350181         9.5289 
 106   0.0000       0.360747         9.8164 
 107   0.0000       0.370115        10.0713 
 108   0.0000       0.372595        10.1388 
 109   0.0000       0.386798        10.5253 
 110   0.0000       0.400914        10.9094 
 111   0.0000       0.407421        11.0865 
 112   0.0000       0.416272        11.3273 
 113   0.0000       0.427664        11.6373 
 114   0.0000       0.434665        11.8278 
 115   0.0000       0.436194        11.8694 
 116   0.0000       0.443503        12.0683 
 117   0.0000       0.453374        12.3369 
 118   0.0000       0.469837        12.7849 
 119   0.0000       0.482307        13.1242 
 120   0.0000       0.487658        13.2699 
 121   0.0000       0.495498        13.4832 
 122   0.0000       0.500587        13.6217 
 123   0.0000       0.508254        13.8303 
 124   0.0000       0.518393        14.1062 
 125   0.0000       0.527624        14.3574 
 126   0.0000       0.532101        14.4792 
 127   0.0000       0.544809        14.8250 
 128   0.0000       0.548267        14.9191 
 129   0.0000       0.552508        15.0345 
 130   0.0000       0.564916        15.3721 
 131   0.0000       0.569033        15.4842 
 132   0.0000       0.576027        15.6745 
 133   0.0000       0.585306        15.9270 
 134   0.0000       0.587913        15.9979 
 135   0.0000       0.593195        16.1417 
 136   0.0000       0.595489        16.2041 
 137   0.0000       0.602811        16.4033 
 138   0.0000       0.606553        16.5052 
 139   0.0000       0.611015        16.6266 
 140   0.0000       0.612461        16.6659 
 141   0.0000       0.617984        16.8162 
 142   0.0000       0.624168        16.9845 
 143   0.0000       0.629628        17.1331 
 144   0.0000       0.631374        17.1806 
 145   0.0000       0.632794        17.2192 
 146   0.0000       0.636650        17.3241 
 147   0.0000       0.648734        17.6529 
 148   0.0000       0.657650        17.8956 
 149   0.0000       0.666298        18.1309 
 150   0.0000       0.667689        18.1688 
 151   0.0000       0.679904        18.5011 
 152   0.0000       0.684416        18.6239 
 153   0.0000       0.688487        18.7347 
 154   0.0000       0.692844        18.8532 
 155   0.0000       0.706125        19.2146 
 156   0.0000       0.714877        19.4528 
 157   0.0000       0.732988        19.9456 
 158   0.0000       0.737353        20.0644 
 159   0.0000       0.749777        20.4025 
 160   0.0000       0.765655        20.8345 
 161   0.0000       0.779217        21.2036 
 162   0.0000       0.787736        21.4354 
 163   0.0000       0.814961        22.1762 
 164   0.0000       0.845307        23.0020 
 165   0.0000       0.860161        23.4062 
 166   0.0000       0.866958        23.5911 
 167   0.0000       0.894377        24.3372 
 168   0.0000       0.903355        24.5815 
 169   0.0000       0.946278        25.7495 
 170   0.0000       0.957747        26.0616 
 171   0.0000       0.975808        26.5531 
 172   0.0000       0.988100        26.8876 
 173   0.0000       1.014195        27.5976 
 174   0.0000       1.025782        27.9129 
 175   0.0000       1.066727        29.0271 
 176   0.0000       1.086302        29.5598 
 177   0.0000       1.093140        29.7459 
 178   0.0000       1.133682        30.8490 
 179   0.0000       1.143214        31.1084 
 180   0.0000       1.156962        31.4825 
 181   0.0000       1.167697        31.7746 
 182   0.0000       1.178654        32.0728 
 183   0.0000       1.188135        32.3308 
 184   0.0000       1.199922        32.6515 
 185   0.0000       1.203113        32.7384 
 186   0.0000       1.231749        33.5176 
 187   0.0000       1.242643        33.8140 
 188   0.0000       1.245172        33.8829 
 189   0.0000       1.261129        34.3171 
 190   0.0000       1.294640        35.2289 
 191   0.0000       1.302433        35.4410 
 192   0.0000       1.312636        35.7187 
 193   0.0000       1.322847        35.9965 
 194   0.0000       1.349148        36.7122 
 195   0.0000       1.412404        38.4335 
 196   0.0000       1.429315        38.8936 
 197   0.0000       1.452514        39.5249 
 198   0.0000       1.459713        39.7208 
 199   0.0000       1.466241        39.8984 
 200   0.0000       1.481364        40.3100 
 201   0.0000       1.511746        41.1367 
 202   0.0000       1.542504        41.9737 
 203   0.0000       1.548987        42.1501 
 204   0.0000       1.553192        42.2645 
 205   0.0000       1.570442        42.7339 
 206   0.0000       1.583899        43.1001 
 207   0.0000       1.596837        43.4522 
 208   0.0000       1.607434        43.7405 
 209   0.0000       1.612144        43.8687 
 210   0.0000       1.616028        43.9743 
 211   0.0000       1.626636        44.2630 
 212   0.0000       1.642023        44.6817 
 213   0.0000       1.652091        44.9557 
 214   0.0000       1.657074        45.0913 
 215   0.0000       1.663498        45.2661 
 216   0.0000       1.670401        45.4539 
 217   0.0000       1.673569        45.5401 
 218   0.0000       1.686713        45.8978 
 219   0.0000       1.695593        46.1394 
 220   0.0000       1.701259        46.2936 
 221   0.0000       1.703783        46.3623 
 222   0.0000       1.708710        46.4964 
 223   0.0000       1.713095        46.6157 
 224   0.0000       1.722341        46.8673 
 225   0.0000       1.727722        47.0137 
 226   0.0000       1.730734        47.0957 
 227   0.0000       1.738899        47.3178 
 228   0.0000       1.747453        47.5506 
 229   0.0000       1.759615        47.8816 
 230   0.0000       1.767275        48.0900 
 231   0.0000       1.769602        48.1533 
 232   0.0000       1.786293        48.6075 
 233   0.0000       1.803861        49.0856 
 234   0.0000       1.805796        49.1382 
 235   0.0000       1.815536        49.4032 
 236   0.0000       1.829090        49.7721 
 237   0.0000       1.834735        49.9257 
 238   0.0000       1.848981        50.3133 
 239   0.0000       1.854543        50.4647 
 240   0.0000       1.864505        50.7358 
 241   0.0000       1.879243        51.1368 
 242   0.0000       1.883983        51.2658 
 243   0.0000       1.892546        51.4988 
 244   0.0000       1.906818        51.8872 
 245   0.0000       1.920372        52.2560 
 246   0.0000       1.926400        52.4200 
 247   0.0000       1.927496        52.4498 
 248   0.0000       1.941781        52.8385 
 249   0.0000       1.950791        53.0837 
 250   0.0000       1.974782        53.7365 
 251   0.0000       1.996005        54.3141 
 252   0.0000       2.005697        54.5778 
 253   0.0000       2.006699        54.6051 
 254   0.0000       2.035220        55.3811 
 255   0.0000       2.039968        55.5103 
 256   0.0000       2.056477        55.9596 
 257   0.0000       2.066228        56.2249 
 258   0.0000       2.075176        56.4684 
 259   0.0000       2.088861        56.8408 
 260   0.0000       2.104162        57.2572 
 261   0.0000       2.121454        57.7277 
 262   0.0000       2.127154        57.8828 
 263   0.0000       2.161915        58.8287 
 264   0.0000       2.175923        59.2099 
 265   0.0000       2.192204        59.6529 
 266   0.0000       2.210321        60.1459 
 267   0.0000       2.219024        60.3827 
 268   0.0000       2.226166        60.5770 
 269   0.0000       2.238343        60.9084 
 270   0.0000       2.250055        61.2271 
 271   0.0000       2.259340        61.4798 
 272   0.0000       2.265337        61.6430 
 273   0.0000       2.284371        62.1609 
 274   0.0000       2.294648        62.4406 
 275   0.0000       2.313523        62.9542 
 276   0.0000       2.316545        63.0364 
 277   0.0000       2.325744        63.2867 
 278   0.0000       2.340142        63.6785 
 279   0.0000       2.392244        65.0963 
 280   0.0000       2.409985        65.5790 
 281   0.0000       2.416900        65.7672 
 282   0.0000       2.438564        66.3567 
 283   0.0000       2.460225        66.9461 
 284   0.0000       2.462893        67.0187 
 285   0.0000       2.483317        67.5745 
 286   0.0000       2.489599        67.7454 
 287   0.0000       2.508636        68.2634 
 288   0.0000       2.525524        68.7230 
 289   0.0000       2.534146        68.9576 
 290   0.0000       2.552441        69.4555 
 291   0.0000       2.564741        69.7902 
 292   0.0000       2.596118        70.6440 
 293   0.0000       2.622030        71.3491 
 294   0.0000       2.641804        71.8871 
 295   0.0000       2.649078        72.0851 
 296   0.0000       2.665369        72.5284 
 297   0.0000       2.690353        73.2082 
 298   0.0000       2.702936        73.5506 
 299   0.0000       2.722202        74.0749 
 300   0.0000       2.748754        74.7974 
 301   0.0000       2.760551        75.1184 
 302   0.0000       2.778046        75.5945 
 303   0.0000       2.785223        75.7898 
 304   0.0000       2.801452        76.2314 
 305   0.0000       2.823016        76.8182 
 306   0.0000       2.850805        77.5744 
 307   0.0000       2.854412        77.6725 
 308   0.0000       2.871660        78.1418 
 309   0.0000       2.882560        78.4384 
 310   0.0000       2.931837        79.7794 
 311   0.0000       2.939538        79.9889 
 312   0.0000       2.948821        80.2415 
 313   0.0000       2.991243        81.3958 
 314   0.0000       3.028925        82.4212 
 315   0.0000       3.061574        83.3097 
 316   0.0000       3.140505        85.4575 
 317   0.0000       3.380602        91.9909 
 318   0.0000       3.523425        95.8773 

                    ********************************
                    * MULLIKEN POPULATION ANALYSIS *
                    ********************************

-----------------------
MULLIKEN ATOMIC CHARGES
-----------------------
   0 C :   -0.072413
   1 C :   -0.015689
   2 C :   -0.035731
   3 C :   -0.024164
   4 C :    0.066526
   5 C :    0.017357
   6 C :   -0.063609
   7 C :   -0.104360
   8 C :   -0.016738
   9 C :   -0.001738
  10 C :   -0.048584
  11 C :   -0.029130
  12 C :   -0.003172
  13 C :   -0.001567
  14 C :   -0.002430
  15 C :   -0.035319
  16 H :    0.056419
  17 H :    0.096635
  18 H :    0.063970
  19 H :    0.074407
  20 H :    0.087687
  21 H :    0.070334
  22 H :    0.094051
  23 H :    0.085814
  24 H :    0.102926
  25 H :    0.201960
  26 H :    0.047698
  27 H :    0.062637
  28 H :    0.082108
  29 H :    0.067171
  30 H :    0.003830
  31 H :    0.042544
  32 H :    0.050994
  33 H :    0.048584
  34 H :    0.030990
Sum of atomic charges:    1.0000000

--------------------------------
MULLIKEN REDUCED ORBITAL CHARGES
--------------------------------
  0 C s       :     3.050005  s :     3.050005
      pz      :     0.971470  p :     2.996693
      px      :     0.963161
      py      :     1.062061
      dz2     :     0.003525  d :     0.025715
      dxz     :     0.006308
      dyz     :     0.006599
      dx2y2   :     0.007449
      dxy     :     0.001834
  1 C s       :     3.010968  s :     3.010968
      pz      :     1.016631  p :     2.972954
      px      :     1.035502
      py      :     0.920821
      dz2     :     0.004744  d :     0.031767
      dxz     :     0.005974
      dyz     :     0.008312
      dx2y2   :     0.008856
      dxy     :     0.003881
  2 C s       :     3.121735  s :     3.121735
      pz      :     0.924300  p :     2.873122
      px      :     0.890114
      py      :     1.058708
      dz2     :     0.008552  d :     0.040873
      dxz     :     0.005980
      dyz     :     0.012174
      dx2y2   :     0.005892
      dxy     :     0.008275
  3 C s       :     3.228132  s :     3.228132
      pz      :     0.956835  p :     2.765349
      px      :     0.925245
      py      :     0.883269
      dz2     :     0.006678  d :     0.030683
      dxz     :     0.004482
      dyz     :     0.009346
      dx2y2   :     0.005383
      dxy     :     0.004795
  4 C s       :     3.178329  s :     3.178329
      pz      :     0.889485  p :     2.721681
      px      :     0.870602
      py      :     0.961594
      dz2     :     0.006595  d :     0.033464
      dxz     :     0.003840
      dyz     :     0.009302
      dx2y2   :     0.006777
      dxy     :     0.006950
  5 C s       :     3.168338  s :     3.168338
      pz      :     0.920657  p :     2.783237
      px      :     0.972486
      py      :     0.890094
      dz2     :     0.007380  d :     0.031068
      dxz     :     0.004971
      dyz     :     0.008614
      dx2y2   :     0.004964
      dxy     :     0.005137
  6 C s       :     3.310880  s :     3.310880
      pz      :     0.886249  p :     2.715667
      px      :     0.864039
      py      :     0.965379
      dz2     :     0.007228  d :     0.037062
      dxz     :     0.007271
      dyz     :     0.010654
      dx2y2   :     0.005989
      dxy     :     0.005919
  7 C s       :     3.037029  s :     3.037029
      pz      :     1.136834  p :     3.022044
      px      :     0.986162
      py      :     0.899048
      dz2     :     0.008371  d :     0.045286
      dxz     :     0.004733
      dyz     :     0.010701
      dx2y2   :     0.009114
      dxy     :     0.012368
  8 C s       :     3.014284  s :     3.014284
      pz      :     0.968645  p :     2.963449
      px      :     0.967156
      py      :     1.027648
      dz2     :     0.005478  d :     0.039005
      dxz     :     0.010156
      dyz     :     0.008396
      dx2y2   :     0.006519
      dxy     :     0.008456
  9 C s       :     3.013691  s :     3.013691
      pz      :     0.998239  p :     2.962740
      px      :     1.016170
      py      :     0.948331
      dz2     :     0.003072  d :     0.025307
      dxz     :     0.005713
      dyz     :     0.006530
      dx2y2   :     0.002340
      dxy     :     0.007653
 10 C s       :     3.055262  s :     3.055262
      pz      :     0.992997  p :     2.954031
      px      :     0.994038
      py      :     0.966996
      dz2     :     0.009087  d :     0.039291
      dxz     :     0.008863
      dyz     :     0.008084
      dx2y2   :     0.006521
      dxy     :     0.006736
 11 C s       :     3.200846  s :     3.200846
      pz      :     0.929144  p :     2.796079
      px      :     0.933467
      py      :     0.933467
      dz2     :     0.007062  d :     0.032205
      dxz     :     0.007864
      dyz     :     0.006784
      dx2y2   :     0.005063
      dxy     :     0.005432
 12 C s       :     3.164858  s :     3.164858
      pz      :     0.902812  p :     2.805595
      px      :     0.939930
      py      :     0.962853
      dz2     :     0.006924  d :     0.032720
      dxz     :     0.006964
      dyz     :     0.005760
      dx2y2   :     0.006820
      dxy     :     0.006251
 13 C s       :     3.163915  s :     3.163915
      pz      :     0.955376  p :     2.805112
      px      :     0.909457
      py      :     0.940279
      dz2     :     0.008342  d :     0.032541
      dxz     :     0.007349
      dyz     :     0.007236
      dx2y2   :     0.004457
      dxy     :     0.005157
 14 C s       :     3.167356  s :     3.167356
      pz      :     0.935950  p :     2.802359
      px      :     0.945714
      py      :     0.920696
      dz2     :     0.007225  d :     0.032716
      dxz     :     0.007800
      dyz     :     0.006892
      dx2y2   :     0.005449
      dxy     :     0.005351
 15 C s       :     3.207887  s :     3.207887
      pz      :     0.878800  p :     2.795270
      px      :     0.950246
      py      :     0.966225
      dz2     :     0.006338  d :     0.032161
      dxz     :     0.007437
      dyz     :     0.005539
      dx2y2   :     0.006869
      dxy     :     0.005978
 16 H s       :     0.921522  s :     0.921522
      pz      :     0.010314  p :     0.022059
      px      :     0.003902
      py      :     0.007843
 17 H s       :     0.880937  s :     0.880937
      pz      :     0.005170  p :     0.022428
      px      :     0.003628
      py      :     0.013630
 18 H s       :     0.913955  s :     0.913955
      pz      :     0.005461  p :     0.022074
      px      :     0.012172
[...]
     69       0.003694  -0.000031  -0.013064
     70       0.085283  -0.006166  -0.851768
     71       0.028401  -0.002388  -0.321515
     72      -0.444902  -0.009490  -0.140570
     73      -0.607065  -0.012895  -0.188399
     74       0.411874   0.008846   0.131862
     75      -0.008389  -0.000097  -0.001283
     76       0.000815  -0.000183  -0.000867
     77      -0.007980  -0.000225  -0.002440
     78      -0.000690   0.000684  -0.000074
     79       0.000528   0.000337   0.000575
     80       0.000403   0.000608   0.000466
     81      -0.001443  -0.000368  -0.000631
     82       0.000675   0.000141   0.000317
     83      -0.000657  -0.000116  -0.000327
     84       0.001960   0.000056   0.000881
     85      -0.001701   0.000008  -0.000597
     86      -0.002365  -0.000024  -0.001154
     87      -0.003062  -0.000305   0.000491
     88      -0.006344  -0.000380  -0.000712
     89      -0.006412  -0.000339  -0.000882
     90      -0.000609   0.018058  -0.000131
     91       0.001046  -0.038540   0.000275
     92       0.000348  -0.029258   0.000139
     93       0.005717  -0.223803   0.001834
     94       0.002721  -0.106993   0.000878
     95       0.010192  -0.397790   0.003263
     96       0.014067  -0.634103   0.003970
     97      -0.009071   0.407996  -0.002565
     98       0.004548  -0.206117   0.001279
     99       0.002007  -0.125615   0.000951
    100      -0.004717   0.290684  -0.002193
    101      -0.003768   0.232033  -0.001718
    102      -0.000643   0.029403  -0.000407
    103      -0.000289   0.011849  -0.000255
    104      -0.001106   0.049153  -0.000726


-----------
IR SPECTRUM
-----------

 Mode   freq       eps      Int      T**2         TX        TY        TZ
       cm**-1   L/(mol*cm) km/mol    a.u.
----------------------------------------------------------------------------
  7:     34.89   0.000032    0.16  0.000290  ( 0.000645 -0.014075  0.009556)
  8:     50.60   0.000021    0.11  0.000128  (-0.007488  0.007900  0.003139)
  9:     67.55   0.000217    1.10  0.001004  (-0.027220  0.016127  0.001621)
 10:     99.94   0.000096    0.48  0.000299  ( 0.010936  0.006118  0.011900)
 11:    119.65   0.000166    0.84  0.000433  ( 0.018626  0.004730  0.007956)
 12:    155.36   0.000338    1.71  0.000679  (-0.022991 -0.010356  0.006582)
 13:    160.43   0.000134    0.68  0.000261  (-0.013397 -0.008868  0.001613)
 14:    218.10   0.000055    0.28  0.000078  (-0.007645 -0.003457  0.002769)
 15:    225.41   0.000050    0.25  0.000069  (-0.001943 -0.007363 -0.003277)
 16:    289.31   0.000711    3.59  0.000766  (-0.018205  0.007183  0.019581)
 17:    290.47   0.000186    0.94  0.000200  ( 0.004883 -0.010403 -0.008246)
 18:    312.25   0.000032    0.16  0.000032  ( 0.005009  0.001756  0.001994)
 19:    331.03   0.000052    0.26  0.000049  ( 0.003069 -0.006295 -0.000069)
 20:    354.29   0.000046    0.23  0.000040  ( 0.002703  0.004916 -0.002986)
 21:    411.68   0.000012    0.06  0.000009  ( 0.001816 -0.002168 -0.001171)
 22:    449.64   0.001034    5.22  0.000718  (-0.023893 -0.010419 -0.006176)
 23:    461.49   0.000177    0.89  0.000120  (-0.005517 -0.008291 -0.004532)
 24:    505.57   0.000550    2.78  0.000339  (-0.008629  0.013951 -0.008387)
 25:    554.34   0.002386   12.06  0.001343  (-0.030615 -0.013968  0.014523)
 26:    557.63   0.002440   12.33  0.001366  ( 0.017264  0.010161 -0.031054)
 27:    596.74   0.000408    2.06  0.000213  ( 0.014147  0.003086  0.001946)
 28:    619.86   0.000229    1.16  0.000115  (-0.010503  0.001623 -0.001542)
 29:    634.53   0.000058    0.29  0.000028  ( 0.005017 -0.001208 -0.001288)
 30:    722.84   0.005975   30.19  0.002579  (-0.029486 -0.030009  0.028450)
 31:    730.16   0.001555    7.86  0.000665  ( 0.014057  0.020720 -0.006146)
 32:    771.05   0.001637    8.27  0.000663  ( 0.013089 -0.008560  0.020448)
 33:    776.68   0.002055   10.39  0.000826  ( 0.024177  0.015517  0.000738)
 34:    788.74   0.000210    1.06  0.000083  ( 0.004409  0.007627 -0.002328)
 35:    791.97   0.002352   11.89  0.000927  ( 0.026088  0.010831 -0.011351)
 36:    813.53   0.004794   24.23  0.001839  ( 0.033184 -0.023821  0.013058)
 37:    840.15   0.000952    4.81  0.000354  ( 0.016943 -0.004639  0.006704)
 38:    851.20   0.000063    0.32  0.000023  (-0.002065 -0.001210  0.004183)
 39:    934.91   0.000995    5.03  0.000332  ( 0.000503  0.000583  0.018209)
 40:    949.15   0.000081    0.41  0.000027  (-0.004698  0.002043 -0.000732)
 41:    980.01   0.000487    2.46  0.000155  (-0.001015  0.012132  0.002604)
 42:    990.92   0.000100    0.50  0.000031  (-0.002149  0.003468  0.003844)
 43:   1002.15   0.000053    0.27  0.000016  ( 0.001127 -0.003514 -0.001684)
 44:   1004.33   0.000910    4.60  0.000283  ( 0.005151 -0.004403 -0.015390)
 45:   1014.11   0.001570    7.94  0.000483  ( 0.017527 -0.011829 -0.006012)
 46:   1042.75   0.000003    0.02  0.000001  ( 0.000410  0.000537 -0.000738)
 47:   1050.95   0.000528    2.67  0.000157  ( 0.011919 -0.002007  0.003272)
 48:   1055.53   0.000070    0.36  0.000021  (-0.003333 -0.002636  0.001654)
 49:   1059.75   0.000388    1.96  0.000114  ( 0.001337 -0.010229 -0.002785)
 50:   1073.21   0.000235    1.19  0.000068  ( 0.007633  0.000301  0.003178)
 51:   1076.76   0.001701    8.59  0.000493  (-0.011617 -0.015914 -0.010232)
 52:   1080.16   0.001304    6.59  0.000377  (-0.018880 -0.001282  0.004310)
 53:   1094.85   0.002505   12.66  0.000714  (-0.018205  0.017742  0.008227)
 54:   1110.77   0.004388   22.18  0.001233  (-0.004184  0.031399 -0.015145)
 55:   1121.95   0.001565    7.91  0.000435  ( 0.001847  0.010131  0.018144)
 56:   1143.44   0.000288    1.46  0.000079  ( 0.004692 -0.005947 -0.004620)
 57:   1182.39   0.000009    0.05  0.000002  ( 0.000122  0.000031  0.001553)
 58:   1189.21   0.000756    3.82  0.000198  (-0.011144 -0.004379  0.007425)
 59:   1200.85   0.000127    0.64  0.000033  (-0.000969  0.000133  0.005654)
 60:   1204.03   0.000599    3.03  0.000155  ( 0.005629 -0.007282 -0.008405)
 61:   1220.15   0.000720    3.64  0.000184  ( 0.006229 -0.007046  0.009778)
 62:   1249.43   0.000242    1.22  0.000060  (-0.000760 -0.005826  0.005088)
 63:   1259.23   0.001248    6.31  0.000309  (-0.015442  0.001152  0.008334)
 64:   1288.85   0.002743   13.86  0.000664  (-0.018798  0.003261  0.017328)
 65:   1307.16   0.000791    4.00  0.000189  ( 0.000214  0.003143  0.013375)
 66:   1342.88   0.000324    1.64  0.000075  (-0.007576 -0.004234 -0.000279)
 67:   1346.39   0.000481    2.43  0.000111  (-0.006518  0.001540  0.008156)
 68:   1361.97   0.000795    4.02  0.000182  ( 0.006056 -0.001393 -0.011983)
 69:   1383.47   0.000951    4.81  0.000215  ( 0.008911  0.007582 -0.008812)
 70:   1393.12   0.000985    4.98  0.000221  ( 0.013559 -0.005894 -0.001467)
 71:   1397.88   0.003344   16.90  0.000747  ( 0.012736  0.017098 -0.017090)
 72:   1405.43   0.000036    0.18  0.000008  ( 0.001754 -0.001443 -0.001688)
 73:   1464.28   0.000825    4.17  0.000176  (-0.007814 -0.004599 -0.009679)
 74:   1465.99   0.005456   27.57  0.001161  ( 0.028676  0.009523 -0.015760)
 75:   1469.83   0.001126    5.69  0.000239  (-0.009821  0.004868 -0.010905)
 76:   1473.35   0.008855   44.75  0.001876  ( 0.028646 -0.004339 -0.032189)
 77:   1477.31   0.000373    1.89  0.000079  (-0.005420 -0.000743 -0.006996)
 78:   1481.65   0.003241   16.38  0.000683  (-0.006202 -0.000215  0.025380)
 79:   1502.44   0.008070   40.78  0.001676  (-0.006929 -0.037863 -0.013944)
 80:   1505.57   0.002906   14.69  0.000602  (-0.001034 -0.024253  0.003611)
 81:   1549.36   0.003240   16.37  0.000652  (-0.021623  0.011960 -0.006472)
 82:   1634.82   0.001444    7.30  0.000276  (-0.014195 -0.006507 -0.005635)
 83:   1682.60   0.002396   12.11  0.000444  ( 0.001384  0.013421  0.016195)
 84:   1692.88   0.000458    2.31  0.000084  (-0.004237 -0.005198 -0.006282)
 85:   1701.89   0.000567    2.86  0.000104  ( 0.006604 -0.006518 -0.004221)
 86:   2170.10   0.004594   23.21  0.000661  (-0.012294  0.004697 -0.022076)
 87:   3075.32   0.001726    8.72  0.000175  (-0.007691  0.010545 -0.002183)
 88:   3082.49   0.001267    6.40  0.000128  ( 0.006713 -0.002005  0.008896)
 89:   3114.11   0.000358    1.81  0.000036  ( 0.005194  0.001132  0.002764)
 90:   3116.99   0.000505    2.55  0.000051  ( 0.003560  0.005309 -0.003113)
 91:   3164.79   0.001453    7.34  0.000143  (-0.009782 -0.004643  0.005103)
 92:   3168.75   0.002309   11.67  0.000227  (-0.013104  0.003228 -0.006726)
 93:   3179.85   0.001379    6.97  0.000135  ( 0.005408  0.006569 -0.007934)
 94:   3195.22   0.002079   10.51  0.000203  (-0.008124  0.010204  0.005740)
 95:   3195.47   0.000034    0.17  0.000003  ( 0.000377 -0.000779 -0.001618)
 96:   3197.07   0.000633    3.20  0.000062  (-0.003186  0.007112  0.001032)
 97:   3213.66   0.000451    2.28  0.000044  (-0.004815  0.000903 -0.004448)
 98:   3238.69   0.000178    0.90  0.000017  (-0.002110 -0.000648  0.003504)
 99:   3242.69   0.000002    0.01  0.000000  (-0.000081  0.000411 -0.000238)
100:   3249.79   0.000200    1.01  0.000019  ( 0.000796  0.002127  0.003748)
101:   3255.75   0.000025    0.12  0.000002  ( 0.000662 -0.000419 -0.001319)
102:   3259.79   0.002551   12.89  0.000244  (-0.008681 -0.008657  0.009691)
103:   3260.41   0.000072    0.37  0.000007  ( 0.002281 -0.001092  0.000730)
104:   3273.43   0.002535   12.81  0.000242  (-0.000140 -0.014505 -0.005588)

* The epsilon (eps) is given for a Dirac delta lineshape.
** The dipole moment derivative (T) already includes vibrational overlap.

The first frequency considered to be a vibration is 7
The total number of vibrations considered is 98


--------------------------
THERMOCHEMISTRY AT 298.15K
--------------------------

Temperature         ... 298.15 K
Pressure            ... 1.00 atm
Total Mass          ... 211.33 AMU

Throughout the following assumptions are being made:
  (1) The electronic state is orbitally nondegenerate
  (2) There are no thermally accessible electronically excited states
  (3) Hindered rotations indicated by low frequency modes are not
      treated as such but are treated as vibrations and this may
      cause some error
  (4) All equations used are the standard statistical mechanics
      equations for an ideal gas
  (5) All vibrations are strictly harmonic

freq.      34.89  E(vib)   ...       0.54 
freq.      50.60  E(vib)   ...       0.52 
freq.      67.55  E(vib)   ...       0.50 
freq.      99.94  E(vib)   ...       0.46 
freq.     119.65  E(vib)   ...       0.44 
freq.     155.36  E(vib)   ...       0.40 
freq.     160.43  E(vib)   ...       0.39 
freq.     218.10  E(vib)   ...       0.33 
freq.     225.41  E(vib)   ...       0.33 
freq.     289.31  E(vib)   ...       0.27 
freq.     290.47  E(vib)   ...       0.27 
freq.     312.25  E(vib)   ...       0.25 
freq.     331.03  E(vib)   ...       0.24 
freq.     354.29  E(vib)   ...       0.22 
freq.     411.68  E(vib)   ...       0.19 
freq.     449.64  E(vib)   ...       0.17 
freq.     461.49  E(vib)   ...       0.16 
freq.     505.57  E(vib)   ...       0.14 
freq.     554.34  E(vib)   ...       0.12 
freq.     557.63  E(vib)   ...       0.12 
freq.     596.74  E(vib)   ...       0.10 
freq.     619.86  E(vib)   ...       0.09 
freq.     634.53  E(vib)   ...       0.09 
freq.     722.84  E(vib)   ...       0.07 
freq.     730.16  E(vib)   ...       0.06 
freq.     771.05  E(vib)   ...       0.05 
freq.     776.68  E(vib)   ...       0.05 
freq.     788.74  E(vib)   ...       0.05 
freq.     791.97  E(vib)   ...       0.05 
freq.     813.53  E(vib)   ...       0.05 
freq.     840.15  E(vib)   ...       0.04 
freq.     851.20  E(vib)   ...       0.04 
freq.     934.91  E(vib)   ...       0.03 
freq.     949.15  E(vib)   ...       0.03 
freq.     980.01  E(vib)   ...       0.02 
freq.     990.92  E(vib)   ...       0.02 
freq.    1002.15  E(vib)   ...       0.02 
freq.    1004.33  E(vib)   ...       0.02 
freq.    1014.11  E(vib)   ...       0.02 
freq.    1042.75  E(vib)   ...       0.02 
freq.    1050.95  E(vib)   ...       0.02 
freq.    1055.53  E(vib)   ...       0.02 
freq.    1059.75  E(vib)   ...       0.02 
freq.    1073.21  E(vib)   ...       0.02 
freq.    1076.76  E(vib)   ...       0.02 
freq.    1080.16  E(vib)   ...       0.02 
freq.    1094.85  E(vib)   ...       0.02 
freq.    1110.77  E(vib)   ...       0.01 
freq.    1121.95  E(vib)   ...       0.01 
freq.    1143.44  E(vib)   ...       0.01 
freq.    1182.39  E(vib)   ...       0.01 
freq.    1189.21  E(vib)   ...       0.01 
freq.    1200.85  E(vib)   ...       0.01 
freq.    1204.03  E(vib)   ...       0.01 
freq.    1220.15  E(vib)   ...       0.01 
freq.    1249.43  E(vib)   ...       0.01 
freq.    1259.23  E(vib)   ...       0.01 
freq.    1288.85  E(vib)   ...       0.01 
freq.    1307.16  E(vib)   ...       0.01 
freq.    1342.88  E(vib)   ...       0.01 
freq.    1346.39  E(vib)   ...       0.01 
freq.    1361.97  E(vib)   ...       0.01 
freq.    1383.47  E(vib)   ...       0.00 
freq.    1393.12  E(vib)   ...       0.00 
freq.    1397.88  E(vib)   ...       0.00 
freq.    1405.43  E(vib)   ...       0.00 
freq.    1464.28  E(vib)   ...       0.00 
freq.    1465.99  E(vib)   ...       0.00 
freq.    1469.83  E(vib)   ...       0.00 
freq.    1473.35  E(vib)   ...       0.00 
freq.    1477.31  E(vib)   ...       0.00 
freq.    1481.65  E(vib)   ...       0.00 
freq.    1502.44  E(vib)   ...       0.00 
freq.    1505.57  E(vib)   ...       0.00 
freq.    1549.36  E(vib)   ...       0.00 
freq.    1634.82  E(vib)   ...       0.00 
freq.    1682.60  E(vib)   ...       0.00 
freq.    1692.88  E(vib)   ...       0.00 
freq.    1701.89  E(vib)   ...       0.00 
freq.    2170.10  E(vib)   ...       0.00 
freq.    3075.32  E(vib)   ...       0.00 
freq.    3082.49  E(vib)   ...       0.00 
freq.    3114.11  E(vib)   ...       0.00 
freq.    3116.99  E(vib)   ...       0.00 
freq.    3164.79  E(vib)   ...       0.00 
freq.    3168.75  E(vib)   ...       0.00 
freq.    3179.85  E(vib)   ...       0.00 
freq.    3195.22  E(vib)   ...       0.00 
freq.    3195.47  E(vib)   ...       0.00 
freq.    3197.07  E(vib)   ...       0.00 
freq.    3213.66  E(vib)   ...       0.00 
freq.    3238.69  E(vib)   ...       0.00 
freq.    3242.69  E(vib)   ...       0.00 
freq.    3249.79  E(vib)   ...       0.00 
freq.    3255.75  E(vib)   ...       0.00 
freq.    3259.79  E(vib)   ...       0.00 
freq.    3260.41  E(vib)   ...       0.00 
freq.    3273.43  E(vib)   ...       0.00 

------------
INNER ENERGY
------------

The inner energy is: U= E(el) + E(ZPE) + E(vib) + E(rot) + E(trans)
    E(el)   - is the total energy from the electronic structure calculation
              = E(kin-el) + E(nuc-el) + E(el-el) + E(nuc-nuc)
    E(ZPE)  - the the zero temperature vibrational energy from the frequency calculation
    E(vib)  - the the finite temperature correction to E(ZPE) due to population
              of excited vibrational states
    E(rot)  - is the rotational thermal energy
    E(trans)- is the translational thermal energy

Summary of contributions to the inner energy U:
Electronic energy                ...   -620.11411269 Eh
Zero point energy                ...      0.30495907 Eh     191.36 kcal/mol
Thermal vibrational correction   ...      0.01168620 Eh       7.33 kcal/mol
Thermal rotational correction    ...      0.00141627 Eh       0.89 kcal/mol
Thermal translational correction ...      0.00141627 Eh       0.89 kcal/mol
-----------------------------------------------------------------------
Total thermal energy                   -619.79463488 Eh


Summary of corrections to the electronic energy:
(perhaps to be used in another calculation)
Total thermal correction                  0.01451874 Eh       9.11 kcal/mol
Non-thermal (ZPE) correction              0.30495907 Eh     191.36 kcal/mol
-----------------------------------------------------------------------
Total correction                          0.31947781 Eh     200.47 kcal/mol


--------
ENTHALPY
--------

The enthalpy is H = U + kB*T
                kB is Boltzmann's constant
Total free energy                 ...   -619.79463488 Eh 
Thermal Enthalpy correction       ...      0.00094421 Eh       0.59 kcal/mol
-----------------------------------------------------------------------
Total Enthalpy                    ...   -619.79369067 Eh


Note: Only C1 symmetry has been detected, increase convergence thresholds 
      if your molecule has a higher symmetry. Symmetry factor of 1.0 is   
      used for the rotational entropy correction. 
 

Note: Rotational entropy computed according to Herzberg 
Infrared and Raman Spectra, Chapter V,1, Van Nostrand Reinhold, 1945 
Point Group:  C1, Symmetry Number:   1  
Rotational constants in cm-1:     0.026558     0.012716     0.011642 

Vibrational entropy computed according to the QRRHO of S. Grimme
Chem.Eur.J. 2012 18 9955


-------
ENTROPY
-------

The entropy contributions are T*S = T*(S(el)+S(vib)+S(rot)+S(trans))
     S(el)   - electronic entropy
     S(vib)  - vibrational entropy
     S(rot)  - rotational entropy
     S(trans)- translational entropy
The entropies will be listed as multiplied by the temperature to get
units of energy

Electronic entropy                ...      0.00000000 Eh      0.00 kcal/mol
Vibrational entropy               ...      0.02009525 Eh     12.61 kcal/mol
Rotational entropy                ...      0.01538665 Eh      9.66 kcal/mol
Translational entropy             ...      0.01993095 Eh     12.51 kcal/mol
-----------------------------------------------------------------------
Final entropy term                ...      0.05541286 Eh     34.77 kcal/mol

In case the symmetry of your molecule has not been determined correctly
or in case you have a reason to use a different symmetry number we print 
out the resulting rotational entropy values for sn=1,12 :
 --------------------------------------------------------
|  sn= 1 | S(rot)=       0.01538665 Eh      9.66 kcal/mol|
|  sn= 2 | S(rot)=       0.01473220 Eh      9.24 kcal/mol|
|  sn= 3 | S(rot)=       0.01434937 Eh      9.00 kcal/mol|
|  sn= 4 | S(rot)=       0.01407774 Eh      8.83 kcal/mol|
|  sn= 5 | S(rot)=       0.01386705 Eh      8.70 kcal/mol|
|  sn= 6 | S(rot)=       0.01369491 Eh      8.59 kcal/mol|
|  sn= 7 | S(rot)=       0.01354936 Eh      8.50 kcal/mol|
|  sn= 8 | S(rot)=       0.01342329 Eh      8.42 kcal/mol|
|  sn= 9 | S(rot)=       0.01331208 Eh      8.35 kcal/mol|
|  sn=10 | S(rot)=       0.01321260 Eh      8.29 kcal/mol|
|  sn=11 | S(rot)=       0.01312261 Eh      8.23 kcal/mol|
|  sn=12 | S(rot)=       0.01304045 Eh      8.18 kcal/mol|
 --------------------------------------------------------


-------------------
GIBBS FREE ENERGY
-------------------

The Gibbs free energy is G = H - T*S

Total enthalpy                    ...   -619.79369067 Eh 
Total entropy correction          ...     -0.05541286 Eh    -34.77 kcal/mol
-----------------------------------------------------------------------
Final Gibbs free energy         ...   -619.84910353 Eh

For completeness - the Gibbs free energy minus the electronic energy
G-E(el)                           ...      0.26500915 Eh    166.30 kcal/mol



Timings for individual modules:

Sum of individual times         ...     6388.358 sec (= 106.473 min)
GTO integral calculation        ...       53.437 sec (=   0.891 min)   0.8 %
SCF iterations                  ...     1562.109 sec (=  26.035 min)  24.5 %
SCF Gradient evaluation         ...      856.591 sec (=  14.277 min)  13.4 %
Geometry relaxation             ...        1.176 sec (=   0.020 min)   0.0 %
Analytical frequency calculation...     1137.569 sec (=  18.959 min)  17.8 %
Numerical frequency calculation ...     2766.761 sec (=  46.113 min)  43.3 %
CHELPG charge generation        ...       10.715 sec (=   0.179 min)   0.2 %
                             ****ORCA TERMINATED NORMALLY****
TOTAL RUN TIME: 0 days 1 hours 43 minutes 20 seconds 611 msec
