      -----------------------------------------------------------      
     |                   =====================                   |     
     |                           x T B                           |     
     |                   =====================                   |     
     |                         S. Grimme                         |     
     |          Mulliken Center for Theoretical Chemistry        |     
     |                    University of Bonn                     |     
      -----------------------------------------------------------      

   * xtb version 6.7.1 (edcfbbe) compiled by 'conda@c0858423619e' on 2025-09-04

   xtb is free software: you can redistribute it and/or modify it under
   the terms of the GNU Lesser General Public License as published by
   the Free Software Foundation, either version 3 of the License, or
   (at your option) any later version.
   
   xtb is distributed in the hope that it will be useful,
   but WITHOUT ANY WARRANTY; without even the implied warranty of
   MERCHANTABILITY or FITNESS FOR A PARTICULAR PURPOSE.  See the
   GNU Lesser General Public License for more details.
   
   Cite this work as:
   * C. Bannwarth, E. Caldeweyher, S. Ehlert, A. Hansen, P. Pracht,
     J. Seibert, S. Spicher, S. Grimme, WIREs Comput. Mol. Sci., 2020, 11,
     e01493. DOI: 10.1002/wcms.1493
   
   for GFN2-xTB:
   * C. Bannwarth, S. Ehlert and S. Grimme., J. Chem. Theory Comput., 2019,
     15, 1652-1671. DOI: 10.1021/acs.jctc.8b01176
   for GFN1-xTB:
   * S. Grimme, C. Bannwarth, P. Shushkov, J. Chem. Theory Comput., 2017,
     13, 1989-2009. DOI: 10.1021/acs.jctc.7b00118
   for GFN0-xTB:
   * P. Pracht, E. Caldeweyher, S. Ehlert, S. Grimme, ChemRxiv, 2019, preprint.
     DOI: 10.26434/chemrxiv.8326202.v1
   for GFN-FF:
   * S. Spicher and S. Grimme, Angew. Chem. Int. Ed., 2020, 59, 15665-15673.
     DOI: 10.1002/anie.202004239
   
   for ALPB and GBSA implicit solvation:
   * S. Ehlert, M. Stahn, S. Spicher, S. Grimme, J. Chem. Theory Comput.,
     2021, 17, 4250-4261. DOI: 10.1021/acs.jctc.1c00471
   
   for ddCOSMO and CPCM-X implicit solvation:
   * M. Stahn, S. Ehlert, S. Grimme, J. Phys. Chem. A,
     2023, XX, XXXX-XXXX. DOI: 10.1021/acs.jpca.3c04382
   
   for DFT-D4:
   * E. Caldeweyher, C. Bannwarth and S. Grimme, J. Chem. Phys., 2017,
     147, 034112. DOI: 10.1063/1.4993215
   * E. Caldeweyher, S. Ehlert, A. Hansen, H. Neugebauer, S. Spicher,
     C. Bannwarth and S. Grimme, J. Chem. Phys., 2019, 150, 154122.
     DOI: 10.1063/1.5090222
   * E. Caldeweyher, J.-M. Mewes, S. Ehlert and S. Grimme, Phys. Chem. Chem. Phys.
     2020, 22, 8499-8512. DOI: 10.1039/D0CP00502A
   
   for sTDA-xTB:
   * S. Grimme and C. Bannwarth, J. Chem. Phys., 2016, 145, 054103.
     DOI: 10.1063/1.4959605
   
   in the mass-spec context:
   * V. Asgeirsson, C. Bauer and S. Grimme, Chem. Sci., 2017, 8, 4879.
     DOI: 10.1039/c7sc00601b
   * J. Koopman and S. Grimme, ACS Omega 2019, 4, 12, 15120-15133.
     DOI: 10.1021/acsomega.9b02011
   
   for metadynamics refer to:
   * S. Grimme, J. Chem. Theory Comput., 2019, 155, 2847-2862
     DOI: 10.1021/acs.jctc.9b00143
   
   for SPH calculations refer to:
   * S. Spicher and S. Grimme, J. Chem. Theory Comput., 2021, 17, 1701-1714
     DOI: 10.1021/acs.jctc.0c01306
   
   for ONIOM refer to:
   * C. Plett, A. Katbashev, S. Ehlert, S. Grimme, M. Bursch,
     Phys. Chem. Chem. Phys., 2023, 25, 17860-17868. DOI: 10.1039/D3CP02178E
   
   for DIPRO refer to:
   * J. Kohn, N. Gildemeister, S. Grimme, D. Fazzi, A. Hansen,
     J. Chem. Phys., 2023, just accepted.
   
   for PTB refer to:
   * S. Grimme, M. Mueller, A. Hansen, J. Chem. Phys., 2023, 158, 124111.
     DOI: 10.1063/5.0137838
   
   with help from (in alphabetical order)
   P. Atkinson, C. Bannwarth, F. Bohle, G. Brandenburg, E. Caldeweyher
   M. Checinski, S. Dohm, S. Ehlert, S. Ehrlich, I. Gerasimov, C. Hölzer
   A. Katbashev, J. Kohn, J. Koopman, C. Lavigne, S. Lehtola, F. März, M. Müller,
   F. Musil, H. Neugebauer, J. Pisarek, C. Plett, P. Pracht, F. Pultar,
   J. Seibert, P. Shushkov, S. Spicher, M. Stahn, M. Steiner, T. Strunk,
   J. Stückrath, T. Rose, and J. Unsleber
   
 * started run on 2025/09/15 at 14:21:07.422     
   ID    Z sym.   atoms
    1    6 C      1-16
    2    1 H      17-35

           -------------------------------------------------
          |                Calculation Setup                |
           -------------------------------------------------

          program call               : /home/paufv/miniforge3/envs/htvs/bin/xtb gfn_opt.xyz --opt normal --parallel 4 --chrg 0 --uhf 0 --gfn2 --input xtb.inp
          coordinate file            : gfn_opt.xyz
          omp threads                :                     4

########################################################################
[WARNING] Please study the warnings concerning your input carefully
-3- set_opt: the key 'uhf' is not recognized by opt
-2- set_opt: the key 'charge' is not recognized by opt
-1- set_opt: the key 'method' is not recognized by opt
########################################################################

           -------------------------------------------------
          |                 G F N 2 - x T B                 |
           -------------------------------------------------

        Reference                      10.1021/acs.jctc.8b01176
      * Hamiltonian:
        H0-scaling (s, p, d)           1.850000    2.230000    2.230000
        zeta-weighting                 0.500000
      * Dispersion:
        s8                             2.700000
        a1                             0.520000
        a2                             5.000000
        s9                             5.000000
      * Repulsion:
        kExp                           1.500000    1.000000
        rExp                           1.000000
      * Coulomb:
        alpha                          2.000000
        third order                    shell-resolved
        anisotropic                    true
        a3                             3.000000
        a5                             4.000000
        cn-shift                       1.200000
        cn-exp                         4.000000
        max-rad                        5.000000

q/qsh data taken from xtbrestart
CAMM data taken from xtbrestart

          ...................................................
          :                      SETUP                      :
          :.................................................:
          :  # basis functions                  83          :
          :  # atomic orbitals                  83          :
          :  # shells                           51          :
          :  # electrons                        83          :
          :  max. iterations                   250          :
          :  Hamiltonian                  GFN2-xTB          :
          :  restarted?                       true          :
          :  GBSA solvation                  false          :
          :  PC potential                    false          :
          :  electronic temp.          300.0000000     K    :
          :  accuracy                    1.0000000          :
          :  -> integral cutoff          0.2500000E+02      :
          :  -> integral neglect         0.1000000E-07      :
          :  -> SCF convergence          0.1000000E-05 Eh   :
          :  -> wf. convergence          0.1000000E-03 e    :
          :  Broyden damping             0.4000000          :
          :  net charge                          0          :
          :  unpaired electrons                  0          :
          ...................................................

 iter      E             dE          RMSdq      gap      omega  full diag
   1    -44.5980853 -0.445981E+02  0.384E+00    2.18       0.0  T
   2    -44.6009230 -0.283761E-02  0.227E+00    2.11       1.0  T
   3    -44.5741577  0.267652E-01  0.826E-01    2.15       1.0  T
   4    -44.6039210 -0.297633E-01  0.121E-01    2.19       1.0  T
   5    -44.6040865 -0.165402E-03  0.637E-02    2.18       1.0  T
   6    -44.6040884 -0.199245E-05  0.304E-02    2.19       1.0  T
   7    -44.6041100 -0.215228E-04  0.821E-03    2.18       2.1  T
   8    -44.6041118 -0.186317E-05  0.294E-03    2.18       5.7  T
   9    -44.6041119 -0.771375E-07  0.151E-03    2.18      11.2  T
  10    -44.6041120 -0.532712E-07  0.413E-04    2.18      40.9  T
  11    -44.6041120 -0.193883E-08  0.187E-04    2.18      90.2  T

   *** convergence criteria satisfied after 11 iterations ***

         #    Occupation            Energy/Eh            Energy/eV
      -------------------------------------------------------------
         1        2.0000           -0.6377275             -17.3534
       ...           ...                  ...                  ...
        36        2.0000           -0.4173830             -11.3576
        37        2.0000           -0.4113652             -11.1938
        38        2.0000           -0.4070139             -11.0754
        39        2.0000           -0.3970301             -10.8037
        40        2.0000           -0.3946000             -10.7376
        41        2.0000           -0.3861015             -10.5064
        42        1.0000           -0.3015464              -8.2055 (HOMO)
        43                         -0.2212935              -6.0217 (LUMO)
        44                         -0.2198730              -5.9830
        45                         -0.2022019              -5.5022
        46                         -0.1334220              -3.6306
        47                         -0.0959955              -2.6122
       ...                                ...                  ...
        83                          0.6326205              17.2145
      -------------------------------------------------------------
                  HL-Gap            0.0802529 Eh            2.1838 eV
             Fermi-level           -0.3026219 Eh           -8.2348 eV

 SCC (total)                   0 d,  0 h,  0 min,  0.026 sec
 SCC setup                      ...        0 min,  0.000 sec (  0.391%)
 Dispersion                     ...        0 min,  0.000 sec (  1.022%)
 classical contributions        ...        0 min,  0.000 sec (  0.166%)
 integral evaluation            ...        0 min,  0.002 sec (  6.288%)
 iterations                     ...        0 min,  0.020 sec ( 78.192%)
 molecular gradient             ...        0 min,  0.003 sec ( 12.939%)
 printout                       ...        0 min,  0.000 sec (  0.966%)

         :::::::::::::::::::::::::::::::::::::::::::::::::::::
         ::                     SUMMARY                     ::
         :::::::::::::::::::::::::::::::::::::::::::::::::::::
         :: total energy             -43.866740060788 Eh    ::
         :: gradient norm              0.069366181956 Eh/a0 ::
         :: HOMO-LUMO gap              2.183793831607 eV    ::
         ::.................................................::
         :: SCC energy               -44.603452786960 Eh    ::
         :: -> isotropic ES            0.004176114503 Eh    ::
         :: -> anisotropic ES          0.009412881588 Eh    ::
         :: -> anisotropic XC          0.029927269058 Eh    ::
         :: -> dispersion             -0.035161742704 Eh    ::
         :: repulsion energy           0.736712726172 Eh    ::
         :: add. restraining           0.000000000000 Eh    ::
         :: total charge               0.000000000000 e     ::
         :::::::::::::::::::::::::::::::::::::::::::::::::::::

      ----------------------------------------------------------- 
     |                   =====================                   |
     |                        A N C O P T                        |
     |                   =====================                   |
     |               Approximate Normal Coordinate               |
     |                Rational Function Optimizer                |
      ----------------------------------------------------------- 
      ----------------------------------------------------------- 
     |                   =====================                   |
     |                        A N C O P T                        |
     |                   =====================                   |
     |               Approximate Normal Coordinate               |
     |                Rational Function Optimizer                |
      ----------------------------------------------------------- 

          ...................................................
          :                      SETUP                      :
          :.................................................:
          :   optimization level            normal          :
          :   max. optcycles                   200          :
          :   ANC micro-cycles                  20          :
          :   degrees of freedom                99          :
          :.................................................:
          :   RF solver                   davidson          :
          :   write xtbopt.log                true          :
          :   linear?                        false          :
          :   energy convergence         0.5000000E-05 Eh   :
          :   grad. convergence          0.1000000E-02 Eh/α :
          :   maxmium RF displ.          1.0000000          :
          :   Hlow (freq-cutoff)         0.1000000E-01      :
          :   Hmax (freq-cutoff)         5.0000000          :
          :   S6 in model hess.         20.0000000          :
          ...................................................

generating ANC from exact Hessian ...
Using Lindh-Hessian (1995)
 Shifting diagonal of input Hessian by    9.5471431777198346E-003
 Lowest  eigenvalues of input Hessian
    0.000000    0.000000    0.000000    0.000000    0.000000    0.000000
    0.010000    0.010249    0.010708    0.011514    0.012578    0.013409
    0.013529    0.014310    0.016091    0.017835    0.018497    0.019825
 Highest eigenvalues
    1.690574    1.815781    1.822013    1.901644    1.926647    1.937231


........................................................................
.............................. CYCLE    1 ..............................
........................................................................

 iter      E             dE          RMSdq      gap      omega  full diag
   1    -44.6041120 -0.446041E+02  0.797E-05    2.18       0.0  T
   2    -44.6041120 -0.251603E-10  0.505E-05    2.18     334.9  T
   3    -44.6041120 -0.109424E-10  0.337E-05    2.18     501.1  T
     SCC iter.                  ...        0 min,  0.003 sec
     gradient                   ...        0 min,  0.003 sec
 * total energy  :   -43.8667401 Eh     change       -0.2223715E-09 Eh
   gradient norm :     0.0693658 Eh/α   predicted     0.0000000E+00 (-100.00%)
   displ. norm   :     0.3394565 α      lambda       -0.1146016E-01
   maximum displ.:     0.1373480 α      in ANC's #20, #17, #30, ...

........................................................................
.............................. CYCLE    2 ..............................
........................................................................

 iter      E             dE          RMSdq      gap      omega  full diag
   1    -44.6431312 -0.446431E+02  0.215E-01    2.23       0.0  T
   2    -44.6431423 -0.111515E-04  0.130E-01    2.23       1.0  T
   3    -44.6430458  0.965020E-04  0.509E-02    2.22       1.0  T
   4    -44.6431538 -0.107986E-03  0.671E-03    2.22       2.5  T
   5    -44.6431549 -0.105213E-05  0.257E-03    2.22       6.6  T
   6    -44.6431549 -0.140388E-07  0.109E-03    2.22      15.6  T
   7    -44.6431549 -0.123449E-07  0.548E-04    2.22      30.8  T
   8    -44.6431549 -0.818498E-08  0.164E-04    2.22     103.3  T
     SCC iter.                  ...        0 min,  0.007 sec
     gradient                   ...        0 min,  0.003 sec
 * total energy  :   -43.8745841 Eh     change       -0.7844064E-02 Eh
   gradient norm :     0.0298556 Eh/α   predicted    -0.6392556E-02 ( -18.50%)
   displ. norm   :     0.2915816 α      lambda       -0.3300733E-02
   maximum displ.:     0.1159222 α      in ANC's #20, #17, #10, ...

........................................................................
.............................. CYCLE    3 ..............................
........................................................................

 iter      E             dE          RMSdq      gap      omega  full diag
   1    -44.6619039 -0.446619E+02  0.148E-01    2.23       0.0  T
   2    -44.6619090 -0.510361E-05  0.894E-02    2.23       1.0  T
   3    -44.6618448  0.642605E-04  0.413E-02    2.23       1.0  T
   4    -44.6619160 -0.712466E-04  0.537E-03    2.23       3.1  T
   5    -44.6619168 -0.813220E-06  0.191E-03    2.23       8.8  T
   6    -44.6619169 -0.142297E-07  0.899E-04    2.23      18.8  T
   7    -44.6619169 -0.152229E-07  0.322E-04    2.23      52.5  T
     SCC iter.                  ...        0 min,  0.006 sec
     gradient                   ...        0 min,  0.003 sec
 * total energy  :   -43.8764882 Eh     change       -0.1904083E-02 Eh
   gradient norm :     0.0074606 Eh/α   predicted    -0.1791468E-02 (  -5.91%)
   displ. norm   :     0.1607276 α      lambda       -0.4372623E-03
   maximum displ.:     0.0822751 α      in ANC's #2, #7, #10, ...

........................................................................
.............................. CYCLE    4 ..............................
........................................................................

 iter      E             dE          RMSdq      gap      omega  full diag
   1    -44.6620133 -0.446620E+02  0.672E-02    2.22       0.0  T
   2    -44.6620136 -0.331364E-06  0.408E-02    2.22       1.0  T
   3    -44.6619935  0.201054E-04  0.221E-02    2.22       1.0  T
   4    -44.6620158 -0.222928E-04  0.153E-03    2.22      11.0  T
   5    -44.6620159 -0.387832E-07  0.764E-04    2.22      22.1  T
   6    -44.6620159 -0.522151E-08  0.278E-04    2.22      60.8  T
     SCC iter.                  ...        0 min,  0.005 sec
     gradient                   ...        0 min,  0.003 sec
 * total energy  :   -43.8767936 Eh     change       -0.3053554E-03 Eh
   gradient norm :     0.0044278 Eh/α   predicted    -0.2242831E-03 ( -26.55%)
   displ. norm   :     0.1712432 α      lambda       -0.2303942E-03
   maximum displ.:     0.1118521 α      in ANC's #2, #7, #1, ...

........................................................................
.............................. CYCLE    5 ..............................
........................................................................

 iter      E             dE          RMSdq      gap      omega  full diag
   1    -44.6612060 -0.446612E+02  0.562E-02    2.22       0.0  T
   2    -44.6612064 -0.343564E-06  0.335E-02    2.21       1.0  T
   3    -44.6611997  0.661409E-05  0.126E-02    2.21       1.3  T
   4    -44.6612070 -0.721870E-05  0.123E-03    2.21      13.7  T
   5    -44.6612070 -0.336691E-07  0.548E-04    2.21      30.8  T
   6    -44.6612070 -0.147983E-08  0.253E-04    2.21      66.9  T
     SCC iter.                  ...        0 min,  0.005 sec
     gradient                   ...        0 min,  0.003 sec
 * total energy  :   -43.8769514 Eh     change       -0.1578455E-03 Eh
   gradient norm :     0.0026558 Eh/α   predicted    -0.1185757E-03 ( -24.88%)
   displ. norm   :     0.1483548 α      lambda       -0.1130355E-03
   maximum displ.:     0.1012687 α      in ANC's #2, #7, #5, ...

........................................................................
.............................. CYCLE    6 ..............................
........................................................................

 iter      E             dE          RMSdq      gap      omega  full diag
   1    -44.6608380 -0.446608E+02  0.409E-02    2.21       0.0  T
   2    -44.6608382 -0.175597E-06  0.241E-02    2.21       1.0  T
   3    -44.6608371  0.108318E-05  0.520E-03    2.21       3.3  T
   4    -44.6608383 -0.118941E-05  0.850E-04    2.21      19.9  T
   5    -44.6608383 -0.193674E-07  0.365E-04    2.21      46.3  T
   6    -44.6608383 -0.640163E-09  0.152E-04    2.21     110.9  T
     SCC iter.                  ...        0 min,  0.005 sec
     gradient                   ...        0 min,  0.003 sec
 * total energy  :   -43.8770428 Eh     change       -0.9138334E-04 Eh
   gradient norm :     0.0027441 Eh/α   predicted    -0.5776186E-04 ( -36.79%)
   displ. norm   :     0.1960452 α      lambda       -0.1288265E-03
   maximum displ.:     0.1254808 α      in ANC's #2, #5, #1, ...

........................................................................
.............................. CYCLE    7 ..............................
........................................................................

 iter      E             dE          RMSdq      gap      omega  full diag
   1    -44.6607140 -0.446607E+02  0.576E-02    2.21       0.0  T
   2    -44.6607142 -0.212257E-06  0.338E-02    2.21       1.0  T
   3    -44.6607136  0.699913E-06  0.432E-03    2.21       3.9  T
   4    -44.6607144 -0.808951E-06  0.863E-04    2.21      19.6  T
   5    -44.6607144 -0.137322E-07  0.443E-04    2.21      38.1  T
     SCC iter.                  ...        0 min,  0.004 sec
     gradient                   ...        0 min,  0.003 sec
 * total energy  :   -43.8771479 Eh     change       -0.1051255E-03 Eh
   gradient norm :     0.0028059 Eh/α   predicted    -0.6692471E-04 ( -36.34%)
   displ. norm   :     0.2541690 α      lambda       -0.1326755E-03
   maximum displ.:     0.1571055 α      in ANC's #2, #5, #1, ...

........................................................................
.............................. CYCLE    8 ..............................
........................................................................

 iter      E             dE          RMSdq      gap      omega  full diag
   1    -44.6607059 -0.446607E+02  0.792E-02    2.21       0.0  T
   2    -44.6607063 -0.326585E-06  0.465E-02    2.21       1.0  T
   3    -44.6607045  0.178766E-05  0.666E-03    2.21       2.5  T
   4    -44.6607065 -0.203584E-05  0.102E-03    2.21      16.6  T
   5    -44.6607065 -0.997731E-08  0.589E-04    2.21      28.7  T
   6    -44.6607065 -0.507222E-08  0.174E-04    2.21      97.1  T
     SCC iter.                  ...        0 min,  0.005 sec
     gradient                   ...        0 min,  0.003 sec
 * total energy  :   -43.8772460 Eh     change       -0.9812584E-04 Eh
   gradient norm :     0.0022169 Eh/α   predicted    -0.7062435E-04 ( -28.03%)
   displ. norm   :     0.2001548 α      lambda       -0.6874992E-04
   maximum displ.:     0.1231595 α      in ANC's #2, #5, #3, ...

........................................................................
.............................. CYCLE    9 ..............................
........................................................................

 iter      E             dE          RMSdq      gap      omega  full diag
   1    -44.6610677 -0.446611E+02  0.653E-02    2.21       0.0  T
   2    -44.6610679 -0.206783E-06  0.384E-02    2.21       1.0  T
   3    -44.6610665  0.144862E-05  0.594E-03    2.21       2.8  T
   4    -44.6610681 -0.163182E-05  0.789E-04    2.21      21.4  T
   5    -44.6610681 -0.595891E-08  0.464E-04    2.21      36.4  T
   6    -44.6610681 -0.287712E-08  0.140E-04    2.21     120.3  T
     SCC iter.                  ...        0 min,  0.005 sec
     gradient                   ...        0 min,  0.003 sec
 * total energy  :   -43.8772936 Eh     change       -0.4758714E-04 Eh
   gradient norm :     0.0013841 Eh/α   predicted    -0.3575278E-04 ( -24.87%)
   displ. norm   :     0.1619284 α      lambda       -0.2708642E-04
   maximum displ.:     0.0986398 α      in ANC's #2, #5, #3, ...

........................................................................
.............................. CYCLE   10 ..............................
........................................................................

 iter      E             dE          RMSdq      gap      omega  full diag
   1    -44.6619429 -0.446619E+02  0.566E-02    2.21       0.0  T
   2    -44.6619431 -0.152647E-06  0.332E-02    2.21       1.0  T
   3    -44.6619425  0.604399E-06  0.390E-03    2.21       4.3  T
   4    -44.6619432 -0.703843E-06  0.670E-04    2.21      25.2  T
   5    -44.6619432 -0.594144E-08  0.384E-04    2.21      44.0  T
     SCC iter.                  ...        0 min,  0.004 sec
     gradient                   ...        0 min,  0.003 sec
 * total energy  :   -43.8773173 Eh     change       -0.2362268E-04 Eh
   gradient norm :     0.0009312 Eh/α   predicted    -0.1370242E-04 ( -41.99%)
   displ. norm   :     0.0466217 α      lambda       -0.8395605E-05
   maximum displ.:     0.0309480 α      in ANC's #7, #2, #3, ...

........................................................................
.............................. CYCLE   11 ..............................
........................................................................

 iter      E             dE          RMSdq      gap      omega  full diag
   1    -44.6621697 -0.446622E+02  0.192E-02    2.22       0.0  T
   2    -44.6621697 -0.166883E-07  0.113E-02    2.22       1.5  T
   3    -44.6621696  0.660260E-07  0.137E-03    2.22      12.3  T
   4    -44.6621697 -0.766907E-07  0.235E-04    2.22      71.9  T
   5    -44.6621697 -0.715687E-09  0.120E-04    2.22     141.2  T
     SCC iter.                  ...        0 min,  0.004 sec
     gradient                   ...        0 min,  0.003 sec
 * total energy  :   -43.8773268 Eh     change       -0.9545532E-05 Eh
   gradient norm :     0.0006700 Eh/α   predicted    -0.4204503E-05 ( -55.95%)
   displ. norm   :     0.0632818 α      lambda       -0.7942892E-05
   maximum displ.:     0.0356349 α      in ANC's #7, #2, #3, ...

........................................................................
.............................. CYCLE   12 ..............................
........................................................................

 iter      E             dE          RMSdq      gap      omega  full diag
   1    -44.6618859 -0.446619E+02  0.248E-02    2.22       0.0  T
   2    -44.6618860 -0.260063E-07  0.146E-02    2.22       1.2  T
   3    -44.6618859  0.752545E-07  0.149E-03    2.22      11.4  T
   4    -44.6618860 -0.899398E-07  0.296E-04    2.22      57.1  T
   5    -44.6618860 -0.106964E-08  0.148E-04    2.22     114.2  T
     SCC iter.                  ...        0 min,  0.004 sec
     gradient                   ...        0 min,  0.003 sec
 * total energy  :   -43.8773350 Eh     change       -0.8213680E-05 Eh
   gradient norm :     0.0004572 Eh/α   predicted    -0.3978961E-05 ( -51.56%)
   displ. norm   :     0.0627712 α      lambda       -0.5375213E-05
   maximum displ.:     0.0298423 α      in ANC's #7, #4, #2, ...

........................................................................
.............................. CYCLE   13 ..............................
........................................................................

 iter      E             dE          RMSdq      gap      omega  full diag
   1    -44.6619264 -0.446619E+02  0.253E-02    2.22       0.0  T
   2    -44.6619265 -0.340837E-07  0.149E-02    2.22       1.1  T
   3    -44.6619265  0.261094E-07  0.101E-03    2.22      16.7  T
   4    -44.6619265 -0.351449E-07  0.369E-04    2.22      45.8  T
   5    -44.6619265 -0.341947E-08  0.159E-04    2.22     106.3  T
     SCC iter.                  ...        0 min,  0.004 sec
     gradient                   ...        0 min,  0.003 sec
 * total energy  :   -43.8773403 Eh     change       -0.5324263E-05 Eh
   gradient norm :     0.0005951 Eh/α   predicted    -0.2692697E-05 ( -49.43%)
   displ. norm   :     0.0654420 α      lambda       -0.4609438E-05
   maximum displ.:     0.0345202 α      in ANC's #4, #3, #2, ...

........................................................................
.............................. CYCLE   14 ..............................
........................................................................

 iter      E             dE          RMSdq      gap      omega  full diag
   1    -44.6618059 -0.446618E+02  0.238E-02    2.22       0.0  T
   2    -44.6618059 -0.332874E-07  0.139E-02    2.22       1.2  T
   3    -44.6618059  0.467317E-09  0.681E-04    2.22      24.8  T
   4    -44.6618059 -0.972306E-08  0.246E-04    2.22      68.6  T
     SCC iter.                  ...        0 min,  0.003 sec
     gradient                   ...        0 min,  0.003 sec
 * total energy  :   -43.8773453 Eh     change       -0.4933649E-05 Eh
   gradient norm :     0.0005063 Eh/α   predicted    -0.2310009E-05 ( -53.18%)
   displ. norm   :     0.0566154 α      lambda       -0.4291579E-05
   maximum displ.:     0.0329646 α      in ANC's #4, #3, #2, ...

   *** GEOMETRY OPTIMIZATION CONVERGED AFTER 14 ITERATIONS ***

------------------------------------------------------------------------
 total energy gain   :        -0.0106052 Eh       -6.6549 kcal/mol
 total RMSD          :         0.2647720 a0        0.1401 Å
 total power (kW/mol):        -1.9888552 (step) -193.8799 (real)
------------------------------------------------------------------------

 ANCopt (total)                0 d,  0 h,  0 min,  0.144 sec
 optimizer setup                ...        0 min,  0.000 sec (  0.048%)
 model hessian                  ...        0 min,  0.010 sec (  7.227%)
 ANC generation                 ...        0 min,  0.001 sec (  0.559%)
 coordinate transformation      ...        0 min,  0.000 sec (  0.059%)
 single point calculation       ...        0 min,  0.130 sec ( 90.714%)
 optimization log               ...        0 min,  0.001 sec (  0.644%)
 hessian update                 ...        0 min,  0.000 sec (  0.086%)
 rational function              ...        0 min,  0.001 sec (  0.429%)

================
 final structure:
================
35
 xtb: 6.7.1 (edcfbbe)
C           -1.67804106370854        2.12190473722259       -1.53384349155820
C           -1.06847810738028        1.10838666315933       -0.57479146923823
C           -1.13731087273073       -0.35772357983850       -1.10533023318568
C           -2.56477424528390       -0.74271196258610       -1.31572076686842
C           -3.21735397451588       -1.60679613451757       -0.50285767010183
C           -2.53684783214471       -2.28140698116622        0.52211572107136
C           -1.14880002944946       -2.14077530572610        0.62646139011027
C           -0.43211025382797       -1.28667722205986       -0.16016763384882
C            1.07708996832546       -1.27360672472183       -0.07097148436956
C            1.72532801785017       -1.40941609076713       -1.45075358360556
C            1.57029661517030       -0.07900890311183        0.72736067262242
C            2.50950937965340        0.82585596326348        0.25047920888666
C            2.92421807664465        1.89191546215598        1.03246538876903
C            2.41196472135975        2.06955138230121        2.30404203255794
C            1.48256670133594        1.16703585759499        2.79448403560896
C            1.07009659057707        0.10462377232962        2.01411927290541
H           -1.51141263028102        3.12928142787392       -1.15793806586727
H           -1.21917927804857        2.04521785354540       -2.51779908709175
H           -2.74942767570919        1.97443222742636       -1.63818038082976
H           -1.58358898252348        1.14906833592930        0.38683922094400
H           -0.02278448041659        1.36522532878755       -0.40582902865413
H           -0.62492243688600       -0.35013120003208       -2.07695578075747
H           -3.08105239839820       -0.26392299831874       -2.13360516796116
H           -4.26745316747363       -1.81020371065591       -0.66016672553680
H           -3.06425583404433       -2.95754475328363        1.17565393002403
H           -0.62487238268161       -2.76932147312810        1.33596791202939
H            1.36425878837330       -2.16223516942818        0.50777719031704
H            2.79511424257460       -1.57850589685367       -1.34856027471128
H            1.56949617049058       -0.52178922994444       -2.05828670644408
H            1.29313196522322       -2.26276943735262       -1.96994056371546
H            2.92927291977643        0.71448566296706       -0.73683465653101
H            3.65373975478249        2.58653784049154        0.64106356696664
H            2.73539353007273        2.90272517746471        2.91022168657830
H            1.07912785981094        1.29184307870901        3.78894613691454
H            0.34186034348178       -0.59354399772778        2.40043540457100

 Bond Distances (Angstroems)
 ---------------------------
C1-C2=1.5227         C1-H17=1.0881        C1-H18=1.0884        C1-H19=1.0865        C2-C1=1.5227         C2-C3=1.5607         
C2-H20=1.0917        C2-H21=1.0899        C3-C2=1.5607         C3-C4=1.4934         C3-C8=1.5012         C3-H22=1.0985        
C4-C3=1.4934         C4-C5=1.3540         C4-H23=1.0792        C5-C4=1.3540         C5-C6=1.4031         C5-H24=1.0811        
C6-C5=1.4031         C6-C7=1.3991         C6-H25=1.0782        C7-C6=1.3991         C7-C8=1.3645         C7-H26=1.0830        
C8-C3=1.5012         C8-C7=1.3645         C8-C9=1.5119         C9-C8=1.5119         C9-C10=1.5305        C9-C11=1.5191        
C9-H27=1.0987        C10-C9=1.5305        C10-H28=1.0879       C10-H29=1.0869       C10-H30=1.0884       C11-C9=1.5191        
C11-C12=1.3886       C11-C16=1.3927       C12-C11=1.3886       C12-C13=1.3856       C12-H31=1.0786       C13-C12=1.3856       
C13-C14=1.3823       C13-H32=1.0807       C14-C13=1.3823       C14-C15=1.3852       C14-H33=1.0799       C15-C14=1.3852       
C15-C16=1.3812       C15-H34=1.0804       C16-C11=1.3927       C16-C15=1.3812       C16-H35=1.0803       H17-C1=1.0881        
H18-C1=1.0884        H19-C1=1.0865        H20-C2=1.0917        H21-C2=1.0899        H22-C3=1.0985        H23-C4=1.0792        
H24-C5=1.0811        H25-C6=1.0782        H26-C7=1.0830        H27-C9=1.0987        H28-C10=1.0879       H29-C10=1.0869       
H30-C10=1.0884       H31-C12=1.0786       H32-C13=1.0807       H33-C14=1.0799       H34-C15=1.0804       H35-C16=1.0803       
 C  H  Rav=1.0856 sigma=0.0061  Rmin=1.0782  Rmax=1.0987    19
 C  C  Rav=1.4398 sigma=0.0692  Rmin=1.3540  Rmax=1.5607    17

 selected bond angles (degree)
 --------------------
H17-C1-C2=109.72               H18-C1-C2=110.72               H18-C1-H17=108.24              H19-C1-C2=111.40               
H19-C1-H17=108.05              H19-C1-H18=108.62              C3-C2-C1=113.17                H20-C2-C1=109.95               
H20-C2-C3=108.28               H21-C2-C1=108.96               H21-C2-C3=108.44               H21-C2-H20=107.90              
C4-C3-C2=109.40                C8-C3-C2=110.28                C8-C3-C4=112.22                H22-C3-C2=105.88               
H22-C3-C4=108.85               H22-C3-C8=110.00               C5-C4-C3=122.73                H23-C4-C3=116.72               
H23-C4-C5=120.50               C6-C5-C4=120.77                H24-C5-C4=120.06               H24-C5-C6=119.14               
C7-C6-C5=119.17                H25-C6-C5=120.47               H25-C6-C7=120.21               C8-C7-C6=122.75                
H26-C7-C6=118.07               H26-C7-C8=119.13               C7-C8-C3=120.24                C9-C8-C3=120.05                
C9-C8-C7=119.72                C10-C9-C8=111.64               C11-C9-C8=111.22               C11-C9-C10=113.96              
H27-C9-C8=106.56               H27-C9-C10=107.00              H27-C9-C11=105.92              H28-C10-C9=110.22              
H29-C10-C9=111.76              H29-C10-H28=108.69             H30-C10-C9=109.36              H30-C10-H28=108.27             
H30-C10-H29=108.47             

 selected dihedral angles (degree)
 ---------------------------------
C3-C2-C1-H17=185.67           C3-C2-C1-H18=305.07           C3-C2-C1-H19= 66.07           H20-C2-C1-H17= 64.45          
H20-C2-C1-H18=183.86          H20-C2-C1-H19=304.85          H21-C2-C1-H17=306.39          H21-C2-C1-H18= 65.80          
H21-C2-C1-H19=186.79          C4-C3-C2-C1=299.77            C4-C3-C2-H20= 61.92           C4-C3-C2-H21=178.76           
C8-C3-C2-C1=175.88            C8-C3-C2-H20=298.03           C8-C3-C2-H21= 54.86           H22-C3-C2-C1= 56.92           
H22-C3-C2-H20=179.07          H22-C3-C2-H21=295.90          C5-C4-C3-C2=252.62            C5-C4-C3-C8= 15.36            
C5-C4-C3-H22=137.35           H23-C4-C3-C2= 70.05           H23-C4-C3-C8=192.79           H23-C4-C3-H22=314.79          
C6-C5-C4-C3=354.25            C6-C5-C4-H23=176.91           H24-C5-C4-C3=176.36           H24-C5-C4-H23=359.02          
C7-C6-C5-C4=354.56            C7-C6-C5-H24=172.47           H25-C6-C5-C4=179.11           H25-C6-C5-H24=357.02          
C8-C7-C6-C5=  5.51            C8-C7-C6-H25=180.97           H26-C7-C6-C5=188.06           H26-C7-C6-H25=  3.53          
C7-C8-C3-C2=107.28            C7-C8-C3-C4=345.03            C7-C8-C3-H22=223.69           C9-C8-C3-C2=287.62            
C9-C8-C3-C4=165.37            C9-C8-C3-H22= 44.03           C3-C8-C7-C6=  5.49            C3-C8-C7-H26=182.92           
C9-C8-C7-C6=185.16            C9-C8-C7-H26=  2.58           C10-C9-C8-C3=308.28           C10-C9-C8-C7=128.62           
C11-C9-C8-C3= 76.79           C11-C9-C8-C7=257.13           H27-C9-C8-C3=191.78           H27-C9-C8-C7= 12.12           
H28-C10-C9-C8=190.23          H28-C10-C9-C11= 63.19         H28-C10-C9-H27=306.46         H29-C10-C9-C8= 69.25          
H29-C10-C9-C11=302.22         H29-C10-C9-H27=185.48         H30-C10-C9-C8=309.14          H30-C10-C9-C11=182.10         
H30-C10-C9-H27= 65.37         
           -------------------------------------------------
          |                Final Singlepoint                |
           -------------------------------------------------

          ...................................................
          :                      SETUP                      :
          :.................................................:
          :  # basis functions                  83          :
          :  # atomic orbitals                  83          :
          :  # shells                           51          :
          :  # electrons                        83          :
          :  max. iterations                   250          :
          :  Hamiltonian                  GFN2-xTB          :
          :  restarted?                      false          :
          :  GBSA solvation                  false          :
          :  PC potential                    false          :
          :  electronic temp.          300.0000000     K    :
          :  accuracy                    1.0000000          :
          :  -> integral cutoff          0.2500000E+02      :
          :  -> integral neglect         0.1000000E-07      :
          :  -> SCF convergence          0.1000000E-05 Eh   :
          :  -> wf. convergence          0.1000000E-03 e    :
          :  Broyden damping             0.4000000          :
          :  net charge                          0          :
          :  unpaired electrons                  0          :
          ...................................................

 iter      E             dE          RMSdq      gap      omega  full diag
   1    -44.6618059 -0.446618E+02  0.147E-04    2.22       0.0  T
   2    -44.6618059 -0.306102E-10  0.117E-04    2.22     144.7  T
   3    -44.6618059 -0.469363E-09  0.475E-05    2.22     355.5  T

   *** convergence criteria satisfied after 3 iterations ***

         #    Occupation            Energy/Eh            Energy/eV
      -------------------------------------------------------------
         1        2.0000           -0.6425953             -17.4859
       ...           ...                  ...                  ...
        36        2.0000           -0.4180828             -11.3766
        37        2.0000           -0.4113443             -11.1932
        38        2.0000           -0.4084604             -11.1148
        39        2.0000           -0.3997389             -10.8774
        40        2.0000           -0.3920809             -10.6691
        41        2.0000           -0.3858023             -10.4982
        42        1.0000           -0.3002727              -8.1708 (HOMO)
        43                         -0.2188666              -5.9557 (LUMO)
        44                         -0.2182078              -5.9377
        45                         -0.2041514              -5.5552
        46                         -0.1231816              -3.3519
        47                         -0.0893202              -2.4305
       ...                                ...                  ...
        83                          0.6684480              18.1894
      -------------------------------------------------------------
                  HL-Gap            0.0814061 Eh            2.2152 eV
             Fermi-level           -0.3013036 Eh           -8.1989 eV

 SCC (total)                   0 d,  0 h,  0 min,  0.007 sec
 SCC setup                      ...        0 min,  0.000 sec (  0.745%)
 Dispersion                     ...        0 min,  0.000 sec (  1.303%)
 classical contributions        ...        0 min,  0.000 sec (  0.337%)
 integral evaluation            ...        0 min,  0.001 sec ( 14.015%)
 iterations                     ...        0 min,  0.003 sec ( 36.826%)
 molecular gradient             ...        0 min,  0.003 sec ( 43.110%)
 printout                       ...        0 min,  0.000 sec (  3.541%)

         :::::::::::::::::::::::::::::::::::::::::::::::::::::
         ::                     SUMMARY                     ::
         :::::::::::::::::::::::::::::::::::::::::::::::::::::
         :: total energy             -43.877345270479 Eh    ::
         :: gradient norm              0.000506130158 Eh/a0 ::
         :: HOMO-LUMO gap              2.215173883741 eV    ::
         ::.................................................::
         :: SCC energy               -44.661103815623 Eh    ::
         :: -> isotropic ES            0.004393200718 Eh    ::
         :: -> anisotropic ES          0.008696911939 Eh    ::
         :: -> anisotropic XC          0.028552599131 Eh    ::
         :: -> dispersion             -0.036355003896 Eh    ::
         :: repulsion energy           0.783758545144 Eh    ::
         :: add. restraining           0.000000000000 Eh    ::
         :: total charge              -0.000000000000 e     ::
         :::::::::::::::::::::::::::::::::::::::::::::::::::::

           -------------------------------------------------
          |                Property Printout                |
           -------------------------------------------------

    * Orbital Energies and Occupations

         #    Occupation            Energy/Eh            Energy/eV
      -------------------------------------------------------------
         1        2.0000           -0.6425953             -17.4859
       ...           ...                  ...                  ...
        30        2.0000           -0.4529264             -12.3248
        31        2.0000           -0.4479986             -12.1907
        32        2.0000           -0.4426334             -12.0447
        33        2.0000           -0.4336482             -11.8002
        34        2.0000           -0.4282130             -11.6523
        35        2.0000           -0.4224203             -11.4946
        36        2.0000           -0.4180828             -11.3766
        37        2.0000           -0.4113443             -11.1932
        38        2.0000           -0.4084604             -11.1148
        39        2.0000           -0.3997389             -10.8774
        40        2.0000           -0.3920809             -10.6691
        41        2.0000           -0.3858023             -10.4982
        42        1.0000           -0.3002727              -8.1708 (HOMO)
        43                         -0.2188666              -5.9557 (LUMO)
        44                         -0.2182078              -5.9377
        45                         -0.2041514              -5.5552
        46                         -0.1231816              -3.3519
        47                         -0.0893202              -2.4305
        48                          0.0700456               1.9060
        49                          0.0748843               2.0377
        50                          0.0971304               2.6431
        51                          0.1074380               2.9235
        52                          0.1138319               3.0975
        53                          0.1241685               3.3788
       ...                                ...                  ...
        83                          0.6684480              18.1894
      -------------------------------------------------------------
                  HL-Gap            0.0814061 Eh            2.2152 eV
             Fermi-level           -0.3013036 Eh           -8.1989 eV

     #   Z          covCN         q      C6AA      α(0)
     1   6 C        3.751    -0.100    22.481     6.762
     2   6 C        3.803    -0.048    21.441     6.592
     3   6 C        3.859    -0.016    20.814     6.488
     4   6 C        2.910    -0.043    29.056     8.839
     5   6 C        2.903    -0.033    28.829     8.804
     6   6 C        2.915    -0.045    29.120     8.849
     7   6 C        2.909    -0.039    28.972     8.826
     8   6 C        2.960    -0.003    28.106     8.696
     9   6 C        3.860    -0.023    20.937     6.507
    10   6 C        3.754    -0.099    22.455     6.757
    11   6 C        2.970     0.014    27.708     8.634
    12   6 C        2.923    -0.040    29.003     8.832
    13   6 C        2.920    -0.032    28.801     8.801
    14   6 C        2.920    -0.034    28.850     8.808
    15   6 C        2.919    -0.030    28.757     8.794
    16   6 C        2.927    -0.038    28.956     8.825
    17   1 H        0.925     0.034     2.526     2.486
    18   1 H        0.925     0.034     2.533     2.489
    19   1 H        0.925     0.038     2.482     2.463
    20   1 H        0.924     0.031     2.574     2.509
    21   1 H        0.925     0.038     2.470     2.458
    22   1 H        0.923     0.048     2.349     2.397
    23   1 H        0.926     0.026     2.649     2.545
    24   1 H        0.926     0.024     2.678     2.559
    25   1 H        0.926     0.022     2.696     2.568
    26   1 H        0.925     0.021     2.721     2.580
    27   1 H        0.923     0.042     2.421     2.433
    28   1 H        0.925     0.037     2.495     2.470
    29   1 H        0.925     0.038     2.475     2.460
    30   1 H        0.925     0.035     2.515     2.480
    31   1 H        0.926     0.033     2.538     2.491
    32   1 H        0.926     0.027     2.634     2.538
    33   1 H        0.926     0.027     2.632     2.537
    34   1 H        0.926     0.028     2.619     2.531
    35   1 H        0.926     0.030     2.586     2.515

 Mol. C6AA /au·bohr⁶  :      12650.133982
 Mol. C8AA /au·bohr⁸  :     299394.459873
 Mol. α(0) /au        :        177.321218


Wiberg/Mayer (AO) data.
largest (>0.10) Wiberg bond orders for each atom

 ---------------------------------------------------------------------------
     #   Z sym  total        # sym  WBO       # sym  WBO       # sym  WBO
 ---------------------------------------------------------------------------
     1   6 C    3.997 --     2 C    1.020    18 H    0.987    19 H    0.986
                            17 H    0.985
     2   6 C    3.990 --     1 C    1.020    20 H    0.980    21 H    0.969
                             3 C    0.924
     3   6 C    3.996 --     4 C    1.036     8 C    1.024    22 H    0.933
                             2 C    0.924
     4   6 C    3.921 --     5 C    1.635     3 C    1.036    23 H    0.970
     5   6 C    3.993 --     4 C    1.635     6 C    1.305    24 H    0.968
     6   6 C    3.875 --     7 C    1.334     5 C    1.305    25 H    0.974
     7   6 C    3.991 --     8 C    1.573     6 C    1.334    26 H    0.964
     8   6 C    3.913 --     7 C    1.573     3 C    1.024     9 C    0.996
     9   6 C    3.994 --    10 C    0.998     8 C    0.996    11 C    0.977
                            27 H    0.950
    10   6 C    3.996 --     9 C    0.998    30 H    0.986    28 H    0.985
                            29 H    0.982
    11   6 C    3.987 --    12 C    1.416    16 C    1.399     9 C    0.977
                            14 C    0.110
    12   6 C    3.990 --    13 C    1.435    11 C    1.416    31 H    0.966
                            15 C    0.108
    13   6 C    3.991 --    14 C    1.446    12 C    1.435    32 H    0.971
                            16 C    0.112
    14   6 C    3.991 --    13 C    1.446    15 C    1.428    33 H    0.972
                            11 C    0.110
    15   6 C    3.992 --    16 C    1.457    14 C    1.428    34 H    0.971
                            12 C    0.108
    16   6 C    3.992 --    15 C    1.457    11 C    1.399    35 H    0.968
                            13 C    0.112
    17   1 H    0.998 --     1 C    0.985
    18   1 H    0.999 --     1 C    0.987
    19   1 H    0.998 --     1 C    0.986
    20   1 H    0.999 --     2 C    0.980
    21   1 H    0.998 --     2 C    0.969
    22   1 H    0.997 --     3 C    0.933
    23   1 H    0.999 --     4 C    0.970
    24   1 H    0.998 --     5 C    0.968
    25   1 H    0.999 --     6 C    0.974
    26   1 H    0.999 --     7 C    0.964
    27   1 H    0.998 --     9 C    0.950
    28   1 H    0.998 --    10 C    0.985
    29   1 H    0.999 --    10 C    0.982
    30   1 H    0.998 --    10 C    0.986
    31   1 H    0.999 --    12 C    0.966
    32   1 H    0.999 --    13 C    0.971
    33   1 H    0.999 --    14 C    0.972
    34   1 H    0.999 --    15 C    0.971
    35   1 H    0.999 --    16 C    0.968
 ---------------------------------------------------------------------------

Topologies differ in total number of bonds
Writing topology from bond orders to xtbtopo.mol

molecular dipole:
                 x           y           z       tot (Debye)
 q only:        0.214       0.127      -0.259
   full:        0.221       0.134      -0.240       0.897
molecular quadrupole (traceless):
                xx          xy          yy          xz          yz          zz
 q only:       -1.100      -1.751      -0.133      -0.739      -0.469       1.233
  q+dip:       -0.974       1.433      -1.105      -2.355      -1.938       2.079
   full:       -1.103      -0.759      -0.440      -1.278      -1.007       1.543

           -------------------------------------------------
          |                Geometry Summary                 |
           -------------------------------------------------

      molecular mass/u    :      211.3226486
   center of mass at/Å    :        0.0514069      -0.0983455       0.1852042
  moments of inertia/u·Å² :        0.5874527E+03   0.1350619E+04   0.1442376E+04
rotational constants/cm⁻¹ :        0.2869615E-01   0.1248142E-01   0.1168740E-01

 * 31 selected distances

     #   Z          #   Z                                           value/Å
     1   6 C        2   6 C                                       1.5226842
     4   6 C        5   6 C                                       1.3539751
     5   6 C        6   6 C                                       1.4031248
     6   6 C        7   6 C                                       1.3990505
     7   6 C        8   6 C                                       1.3645195
     9   6 C       10   6 C                                       1.5305084 (max)
    11   6 C       12   6 C                                       1.3886387
    12   6 C       13   6 C                                       1.3856294
    13   6 C       14   6 C                                       1.3823406
    14   6 C       15   6 C                                       1.3852251
    11   6 C       16   6 C                                       1.3927200
    15   6 C       16   6 C                                       1.3812388
     1   6 C       17   1 H                                       1.0880616
     1   6 C       18   1 H                                       1.0883951
     1   6 C       19   1 H                                       1.0865099
     2   6 C       20   1 H                                       1.0916630
     2   6 C       21   1 H                                       1.0899494
     3   6 C       22   1 H                                       1.0984789
     4   6 C       23   1 H                                       1.0792206
     5   6 C       24   1 H                                       1.0811241
     6   6 C       25   1 H                                       1.0781623 (min)
     7   6 C       26   1 H                                       1.0830375
     9   6 C       27   1 H                                       1.0986704
    10   6 C       28   1 H                                       1.0878776
    10   6 C       29   1 H                                       1.0868586
    10   6 C       30   1 H                                       1.0883753
    12   6 C       31   1 H                                       1.0786073
    13   6 C       32   1 H                                       1.0806932
    14   6 C       33   1 H                                       1.0799253
    15   6 C       34   1 H                                       1.0804142
    16   6 C       35   1 H                                       1.0802808

 * 2 distinct bonds (by element types)

   Z      Z             #   av. dist./Å        max./Å        min./Å
   1 H    6 C          19     1.0855950     1.0986704     1.0781623
   6 C    6 C          12     1.4074713     1.5305084     1.3539751


optimized geometry written to: xtbopt.xyz


           -------------------------------------------------
          | TOTAL ENERGY              -43.877345270479 Eh   |
          | GRADIENT NORM               0.000506130158 Eh/α |
          | HOMO-LUMO GAP               2.215173883741 eV   |
           -------------------------------------------------

------------------------------------------------------------------------
 * finished run on 2025/09/15 at 14:21:07.619     
------------------------------------------------------------------------
 total:
 * wall-time:     0 d,  0 h,  0 min,  0.196 sec
 *  cpu-time:     0 d,  0 h,  0 min,  0.766 sec
 * ratio c/w:     3.903 speedup
 SCF:
 * wall-time:     0 d,  0 h,  0 min,  0.026 sec
 *  cpu-time:     0 d,  0 h,  0 min,  0.099 sec
 * ratio c/w:     3.842 speedup
 ANC optimizer:
 * wall-time:     0 d,  0 h,  0 min,  0.151 sec
 *  cpu-time:     0 d,  0 h,  0 min,  0.606 sec
 * ratio c/w:     4.000 speedup

