35
 energy: -43.877345270479 gnorm: 0.000506130158 xtb: 6.7.1 (edcfbbe)
C           -1.67804106370854        2.12190473722259       -1.53384349155820
C           -1.06847810738028        1.10838666315933       -0.57479146923823
C           -1.13731087273073       -0.35772357983850       -1.10533023318568
C           -2.56477424528390       -0.74271196258610       -1.31572076686842
C           -3.21735397451588       -1.60679613451757       -0.50285767010183
C           -2.53684783214471       -2.28140698116622        0.52211572107136
C           -1.14880002944946       -2.14077530572610        0.62646139011027
C           -0.43211025382797       -1.28667722205986       -0.16016763384882
C            1.07708996832546       -1.27360672472183       -0.07097148436956
C            1.72532801785017       -1.40941609076713       -1.45075358360556
C            1.57029661517030       -0.07900890311183        0.72736067262242
C            2.50950937965340        0.82585596326348        0.25047920888666
C            2.92421807664465        1.89191546215598        1.03246538876903
C            2.41196472135975        2.06955138230121        2.30404203255794
C            1.48256670133594        1.16703585759499        2.79448403560896
C            1.07009659057707        0.10462377232962        2.01411927290541
H           -1.51141263028102        3.12928142787392       -1.15793806586727
H           -1.21917927804857        2.04521785354540       -2.51779908709175
H           -2.74942767570919        1.97443222742636       -1.63818038082976
H           -1.58358898252348        1.14906833592930        0.38683922094400
H           -0.02278448041659        1.36522532878755       -0.40582902865413
H           -0.62492243688600       -0.35013120003208       -2.07695578075747
H           -3.08105239839820       -0.26392299831874       -2.13360516796116
H           -4.26745316747363       -1.81020371065591       -0.66016672553680
H           -3.06425583404433       -2.95754475328363        1.17565393002403
H           -0.62487238268161       -2.76932147312810        1.33596791202939
H            1.36425878837330       -2.16223516942818        0.50777719031704
H            2.79511424257460       -1.57850589685367       -1.34856027471128
H            1.56949617049058       -0.52178922994444       -2.05828670644408
H            1.29313196522322       -2.26276943735262       -1.96994056371546
H            2.92927291977643        0.71448566296706       -0.73683465653101
H            3.65373975478249        2.58653784049154        0.64106356696664
H            2.73539353007273        2.90272517746471        2.91022168657830
H            1.07912785981094        1.29184307870901        3.78894613691454
H            0.34186034348178       -0.59354399772778        2.40043540457100
