35
 energy: -43.866740061011 gnorm: 0.069365839180 xtb: 6.7.1 (edcfbbe)
C           -1.80430000000000        2.13470000000000       -1.61360000000000
C           -1.14890000000000        1.15180000000000       -0.64830000000000
C           -1.19550000000000       -0.32280000000000       -1.10600000000000
C           -2.64060000000000       -0.75040000000000       -1.36550000000000
C           -3.28520000000000       -1.66890000000000       -0.63220000000000
C           -2.58010000000000       -2.29540000000000        0.45180000000000
C           -1.15180000000000       -2.18100000000000        0.59850000000000
C           -0.46440000000000       -1.26220000000000       -0.11600000000000
C            1.06700000000000       -1.22950000000000       -0.01510000000000
C            1.71300000000000       -1.43910000000000       -1.39380000000000
C            1.60990000000000       -0.05360000000000        0.79580000000000
C            2.54670000000000        0.86110000000000        0.28790000000000
C            3.02630000000000        1.91250000000000        1.07530000000000
C            2.58450000000000        2.06540000000000        2.38620000000000
C            1.66450000000000        1.16520000000000        2.91350000000000
C            1.18580000000000        0.11450000000000        2.12760000000000
H           -1.60870000000000        3.16210000000000       -1.28910000000000
H           -1.40350000000000        2.01810000000000       -2.62540000000000
H           -2.89000000000000        2.00590000000000       -1.64910000000000
H           -1.61390000000000        1.25890000000000        0.34010000000000
H           -0.10890000000000        1.47110000000000       -0.54450000000000
H           -0.69190000000000       -0.40420000000000       -2.07710000000000
H           -3.15980000000000       -0.28280000000000       -2.19720000000000
H           -4.31080000000000       -1.95430000000000       -0.83630000000000
H           -3.12140000000000       -2.96750000000000        1.10870000000000
H           -0.66310000000000       -2.87090000000000        1.27930000000000
H            1.38210000000000       -2.11450000000000        0.56040000000000
H            2.79210000000000       -1.60510000000000       -1.29630000000000
H            1.56990000000000       -0.57840000000000       -2.05600000000000
H            1.29240000000000       -2.31960000000000       -1.89300000000000
H            2.91860000000000        0.78110000000000       -0.72960000000000
H            3.74700000000000        2.61300000000000        0.66130000000000
H            2.95770000000000        2.88360000000000        2.99580000000000
H            1.31690000000000        1.27800000000000        3.93690000000000
H            0.46820000000000       -0.57680000000000        2.56490000000000
35
 energy: -43.874584124538 gnorm: 0.029855614098 xtb: 6.7.1 (edcfbbe)
C           -1.79918054106898        2.12411048862967       -1.61032234363556
C           -1.13044921495614        1.14957890297150       -0.64322653930162
C           -1.18185878016806       -0.32382809569844       -1.10547724518985
C           -2.60717946459213       -0.74979478148352       -1.35490386036062
C           -3.25388758109959       -1.66364035401181       -0.60337712867771
C           -2.57112735064243       -2.31665320056282        0.44747572663184
C           -1.17330068244207       -2.15817597087400        0.59348067476485
C           -0.46861841094211       -1.24843009669049       -0.12751651754598
C            1.05284468310839       -1.22441126996191       -0.01714780450100
C            1.71050824517597       -1.41438609552997       -1.38965428533298
C            1.58527934560351       -0.03768479144191        0.77850017113723
C            2.52421902413380        0.86308470716048        0.28099761459125
C            3.01156622167623        1.89843836606139        1.06835350009257
C            2.57549859953066        2.05168520094971        2.37278840751489
C            1.65599586945829        1.15453117238183        2.89015471169602
C            1.17138045265442        0.12141354379302        2.10238236343450
H           -1.60686565800382        3.14754010429511       -1.28753200300587
H           -1.40173432287582        2.00905776423722       -2.61847806276477
H           -2.87911839717433        1.98803768413721       -1.64744619237436
H           -1.60811157095730        1.23153438018711        0.33762242028407
H           -0.08548901924152        1.44618000563402       -0.52516886773768
H           -0.66413282410377       -0.38192132688461       -2.07201277288184
H           -3.11488484052891       -0.27784528373523       -2.18637063385692
H           -4.28291201627621       -1.93282037378106       -0.79984038193509
H           -3.10622830903070       -2.99329680762030        1.09756471789205
H           -0.67970744059768       -2.82402960952180        1.29010987220725
H            1.33366806765979       -2.11027904174193        0.57419575713716
H            2.78245775819139       -1.58550131627036       -1.27974034663486
H            1.56427541446732       -0.55933635654320       -2.04877100533376
H            1.28273387080707       -2.29368194583748       -1.87344928496201
H            2.89889832227927        0.77272515974493       -0.72858651227976
H            3.73563936573961        2.59049823564373        0.65805615864815
H            2.95183577787117        2.86278494869576        2.98322890587898
H            1.31544175693414        1.25930447865811        3.91216556519386
H            0.46234364941048       -0.57478842498993        2.53184522120760
35
 energy: -43.876488207132 gnorm: 0.007460588553 xtb: 6.7.1 (edcfbbe)
C           -1.78330992745166        2.11487082434764       -1.60113279887563
C           -1.11669418277508        1.14190102319526       -0.63331624580867
C           -1.16823018957729       -0.33390941664725       -1.11014286548334
C           -2.58254218713647       -0.74985443703186       -1.35251478186883
C           -3.23087761148488       -1.65531529168783       -0.58277600290487
C           -2.56214702014148       -2.32103369280271        0.45199565738900
C           -1.18369752516982       -2.13756805040782        0.59979774887389
C           -0.46740804118901       -1.24164929271443       -0.13723604908319
C            1.04372273658994       -1.22305603803772       -0.02037197044008
C            1.70586167038221       -1.40429564558222       -1.38878142900898
C            1.57146323037533       -0.03524630931501        0.76803440777387
C            2.50457789266930        0.86271009917271        0.26921406715287
C            2.99217839617709        1.89238813521953        1.05623758693254
C            2.56055168308440        2.04334068769208        2.36013752765868
C            1.63670467755221        1.14909893217218        2.87248001323226
C            1.15217445313502        0.12279503434880        2.08487974227564
H           -1.59621751090905        3.13740714909418       -1.28009305487501
H           -1.38696688138220        1.99611184108899       -2.60745289576700
H           -2.85912966916067        1.96638341514054       -1.63439038865788
H           -1.60187608393205        1.20952207214300        0.34285953519403
H           -0.07105205746774        1.42794073529067       -0.50674529621027
H           -0.63891514023126       -0.36221436397945       -2.07507113571805
H           -3.08748170130013       -0.27130542713867       -2.17806215337470
H           -4.26690780010220       -1.90084117483559       -0.77329083488465
H           -3.08865539130625       -3.01776309575540        1.08432337880031
H           -0.67642289771478       -2.77669462684535        1.31292632294129
H            1.30905281941199       -2.10682680268005        0.57765318152502
H            2.77449015842002       -1.56830293946125       -1.26918089184510
H            1.55515011688151       -0.54309157082392       -2.03289984232251
H            1.27922466988275       -2.27880264977189       -1.87653453410756
H            2.87250894616149        0.77013450562841       -0.74016425470569
H            3.72343549793433        2.57544470590975        0.64866020452918
H            2.94610907403682        2.84424755952386        2.97413416650417
H            1.30268645401149        1.24614361840426        3.89520210214650
H            0.43843934172599       -0.57266951285332        2.50152178301284
35
 energy: -43.876793562513 gnorm: 0.004427882184 xtb: 6.7.1 (edcfbbe)
C           -1.77026417129719        2.11084410962214       -1.59215740666162
C           -1.10719700816226        1.13674499030271       -0.62479478194274
C           -1.16113342546299       -0.34023811675276       -1.11257854389740
C           -2.57690855399751       -0.74845404587144       -1.35178710360664
C           -3.22727308300614       -1.64789798187483       -0.57536327037406
C           -2.55877300147745       -2.32027970222195        0.45664169857420
C           -1.18222359138082       -2.13157249454187        0.60998889661548
C           -0.46386512388317       -1.24585005236080       -0.13991232754622
C            1.04382606485390       -1.22859972045110       -0.02348917225021
C            1.70702981437556       -1.40248972130250       -1.39214215015055
C            1.56341048819840       -0.03659429444793        0.76106200212811
C            2.49385863234286        0.86330803306170        0.25996411836690
C            2.98213901449460        1.89112527267039        1.04937885516087
C            2.55111426972195        2.03883296121101        2.35440155425554
C            1.62265789715334        1.14712511501721        2.86509057753183
C            1.13704735266819        0.12261923524811        2.07601420177666
H           -1.58398564953995        3.13317457844605       -1.27085517512761
H           -1.37090327954738        1.99082520727614       -2.59729894024788
H           -2.84575659206677        1.96029905174000       -1.62707246952133
H           -1.59595065084227        1.19726389155910        0.34971829109122
H           -0.06144704543868        1.41824206255925       -0.49261433460046
H           -0.63004348992804       -0.35534741907750       -2.07728977007097
H           -3.08275379287910       -0.26887800337880       -2.17541214800492
H           -4.26664738179582       -1.88065451863214       -0.76503243658077
H           -3.08328760355836       -3.02396671468354        1.08265779690712
H           -0.66731265928964       -2.75530136064963        1.33224051559381
H            1.31120837296648       -2.10987849664521        0.57561307257307
H            2.77600589034710       -1.56142014164710       -1.27170956352577
H            1.55218778608195       -0.53663017986011       -2.02962637414865
H            1.28363651743180       -2.27480256157855       -1.88581370741533
H            2.85898413961946        0.77163759870295       -0.75063426884691
H            3.71154579540985        2.57563722876464        0.64103031672439
H            2.93760992190322        2.83778660118285        2.96954010391268
H            1.28459174890089        1.24576746206397        3.88618544306725
H            0.41867239708376       -0.57237787345020        2.48595650024103
35
 energy: -43.876951408030 gnorm: 0.002655833257 xtb: 6.7.1 (edcfbbe)
C           -1.75442637494480        2.10912609145123       -1.58053570789838
C           -1.09885603913220        1.13021768434631       -0.61481847500095
C           -1.15458116873347       -0.34684114003517       -1.11477118619325
C           -2.57317621283492       -0.74858157425965       -1.35056224262130
C           -3.22533274843265       -1.64081944082079       -0.56780574228309
C           -2.55719160735074       -2.31240956528794        0.46672392757488
C           -1.17975572968266       -2.12844740158207        0.61953202252118
C           -0.45941412616857       -1.25430539199930       -0.14333515684779
C            1.04700442846281       -1.23566327904778       -0.02947706009879
C            1.71026064018525       -1.40309326235224       -1.39905837405773
C            1.55977601056529       -0.04104948122162        0.75481117654063
C            2.48688374526634        0.86275752874463        0.25271275362751
C            2.96975508148749        1.89293842108541        1.04312105426398
C            2.53593813174442        2.03805660068850        2.34783480831186
C            1.60387078407732        1.14811900885004        2.85643440854223
C            1.12273787538167        0.12154544610470        2.06692850639393
H           -1.56707858893028        3.13046333580926       -1.25637573792197
H           -1.35024761223593        1.98986542053638       -2.58421657945449
H           -2.83016866628937        1.96048768013099       -1.62025419034796
H           -1.59097543796230        1.18376601458332        0.35827040418270
H           -0.05311149419734        1.40701348234952       -0.47651882734990
H           -0.62468267393451       -0.35293541281291       -2.07906015218628
H           -3.08101793819578       -0.26906971814444       -2.17286888145559
H           -4.26655798949244       -1.86458761167451       -0.75651116842075
H           -3.08174036358179       -3.01868032279425        1.08957195036368
H           -0.66048904096113       -2.74279387995500        1.34537907594060
H            1.32075257961217       -2.11544770869369        0.56801421181096
H            2.78016413575110       -1.55763837578137       -1.27979585940017
H            1.55156746126124       -0.53358680770469       -2.03155889025644
H            1.29049942768193       -2.27384437767992       -1.89866527483135
H            2.85014884864726        0.77365532978096       -0.75897948193308
H            3.69725974593822        2.57994542863338        0.63493131658859
H            2.92372762449635        2.83451339624678        2.96537752755664
H            1.25961560708678        1.24936152757690        3.87543961582283
H            0.39864168541487       -0.57203764507053        2.46998622851724
35
 energy: -43.877042791370 gnorm: 0.002744136539 xtb: 6.7.1 (edcfbbe)
C           -1.74150413350557        2.10961791485562       -1.57040004288612
C           -1.09400810753769        1.12434469032165       -0.60679805051043
C           -1.15065377994593       -0.35128939271622       -1.11563906223557
C           -2.57078770842769       -0.75000854385952       -1.34956790048154
C           -3.22449509481607       -1.63548848235513       -0.56106266986803
C           -2.55616081344010       -2.30399250189518        0.47630809472681
C           -1.17670474197424       -2.12789285476641        0.62415935615172
C           -0.45536528599903       -1.26154529181673       -0.14647123214212
C            1.05131383128538       -1.24179994458512       -0.03617081530447
C            1.71384224716253       -1.40426016327859       -1.40683196153469
C            1.55845909279595       -0.04519166779925        0.74948179752728
C            2.48428621251029        0.86123463610220        0.24891875024472
C            2.96071961675887        1.89447529672559        1.03982825911806
C            2.52146983705379        2.03930544353169        2.34272790138392
C            1.58759196978823        1.14965133960181        2.84864052870737
C            1.11262799460055        0.12019545666199        2.05883929390846
H           -1.55218559079031        3.12904907368974       -1.24074033911465
H           -1.33204006995613        1.99362210677110       -2.57252533249856
H           -2.81767309545018        1.96496054834657       -1.61661351013534
H           -1.58990760472195        1.17253647695690        0.36459813243100
H           -0.04837006972674        1.39749758185470       -0.46252252894697
H           -0.62237293097736       -0.35286841193429       -2.07943916141572
H           -3.07931205179036       -0.27245901787230       -2.17276520146985
H           -4.26660731989541       -1.85537073625984       -0.74759471725533
H           -3.08278174692854       -3.00481604241646        1.10319017531090
H           -0.65663773623730       -2.73900937534105        1.35091817814800
H            1.33030594602938       -2.12165546431868        0.55916903814577
H            2.78445004839693       -1.55660383528861       -1.28922514474901
H            1.55294806617903       -0.53342697779644       -2.03727313162483
H            1.29634843028150       -2.27458033821172       -1.90934930477499
H            2.85037745187787        0.77254142288932       -0.76185955571469
H            3.68593838213705        2.58458277350036        0.63243909445672
H            2.90541280953406        2.83710171625763        2.96102042047836
H            1.23555086697427        1.25446891844968        3.86482386913736
H            0.38572507875444       -0.57292635400438        2.45768677278673
35
 energy: -43.877147916895 gnorm: 0.002805967943 xtb: 6.7.1 (edcfbbe)
C           -1.72673860398567        2.11156081965314       -1.55796756060714
C           -1.09033838982749        1.11685979115803       -0.59728035726820
C           -1.14659097818322       -0.35547114214414       -1.11637179328199
C           -2.56748741665175       -0.75273634753541       -1.34871969835494
C           -3.22316083933388       -1.62909910131486       -0.55202793418099
C           -2.55460822607145       -2.29215981294720        0.48911268836405
C           -1.17214470299257       -2.12740514086002        0.62759607307968
C           -0.45004107459657       -1.26940292640091       -0.15074296652896
C            1.05751910048938       -1.24910469812243       -0.04551418749791
C            1.71845213965346       -1.40592171074563       -1.41753161921267
C            1.55938038750856       -0.05144219606289        0.74306821933472
C            2.48556861903742        0.85688296418150        0.24652584153867
C            2.95082932118417        1.89585049062146        1.03701867216102
C            2.50041123447021        2.04365579343029        2.33566262575064
C            1.56599700716318        1.15254598608267        2.83759573867097
C            1.10208607173852        0.11765134237476        2.04818907260028
H           -1.53561176285685        3.12765848446926       -1.21823986295296
H           -1.30899584552736        2.00249457092472       -2.55757865541990
H           -2.80326574821471        1.97211566567085       -1.61482914664611
H           -1.59277528652420        1.15863175647718        0.37106387649987
H           -0.04518532967752        1.38618596018107       -0.44394932407969
H           -0.61997243629414       -0.35246721802852       -2.07982687135089
H           -3.07563891913741       -0.27915256730592       -2.17472973923915
H           -4.26630403966894       -1.84669463222280       -0.73406568964784
H           -3.08491807766737       -2.98134442658774        1.12600589455884
H           -0.65288608740802       -2.73931574151293        1.35327295326753
H            1.34116833407267       -2.13016264201607        0.54670602854815
H            2.78967878584950       -1.55701641793614       -1.30219011442663
H            1.55574803226086       -0.53418144550336       -2.04622689858114
H            1.30246096309894       -2.27598147862654       -1.92205140736744
H            2.85900860551573        0.76682151888771       -0.76148230497685
H            3.67498370643227        2.58867142215686        0.63216752809819
H            2.87618443903750        2.84542074852737        2.95415350172336
H            1.20373750289108        1.26147047014361        3.84992960214799
H            0.37324951421501       -0.57541813906608        2.44315781527777
35
 energy: -43.877246042731 gnorm: 0.002216998232 xtb: 6.7.1 (edcfbbe)
C           -1.70969298074719        2.11460456890151       -1.54342496374346
C           -1.08691440994855        1.10815936300242       -0.58606234984926
C           -1.14169437152570       -0.35921350963523       -1.11694115131061
C           -2.56287794569568       -0.75566816139068       -1.34717025126777
C           -3.22072950369248       -1.62024926259185       -0.53917102450206
C           -2.55139047531904       -2.27730268114092        0.50505561614666
C           -1.16558013931412       -2.12625909422009        0.63025869521430
C           -0.44289870462340       -1.27755003676626       -0.15665901865170
C            1.06549933051265       -1.25819943536599       -0.05720351949346
C            1.72393480962060       -1.40812367297495       -1.43091236437250
C            1.56201353332637       -0.06018965301252        0.73509148505298
C            2.49041368962552        0.84911128930128        0.24497074954155
C            2.93972518551524        1.89614184349740        1.03427744368601
C            2.47158145846233        2.05071226118618        2.32593722569637
C            1.53821724791094        1.15587445125543        2.82267813749308
C            1.09047366399189        0.11300407208933        2.03444654903219
H           -1.51881148123394        3.12611047576553       -1.18935425779990
H           -1.28017629353387        2.01604409018077       -2.53920187658720
H           -2.78602119908097        1.97961826600748       -1.61511551823620
H           -1.59890424101271        1.14266758989565        0.37758665284586
H           -0.04272779169798        1.37348743361544       -0.42030481085769
H           -0.61675595213809       -0.35025394034563       -2.08072039813920
H           -3.06996492882110       -0.28752653811024       -2.17715726229602
H           -4.26564202542943       -1.83570368447483       -0.71383146252479
H           -3.08548504905247       -2.95096947304787        1.15622498258934
H           -0.64778911556616       -2.74190686743154        1.35395890689816
H            1.35210028829325       -2.14131572087730        0.53117195886910
H            2.79559511570339       -1.55879030320609       -1.31849080531345
H            1.55948941455661       -0.53463007530414       -2.05652359408296
H            1.30830655906894       -2.27717809894908       -1.93765633676703
H            2.87685683746180        0.75487778652209       -0.75786390992893
H            3.66388260680848        2.59133625128874        0.63369341688613
H            2.83218873067754        2.86090025275358        2.94289154595639
H            1.16249277080106        1.26956950088075        3.82965488055091
H            0.36108536609542       -0.58118928729714        2.42576662926556
35
 energy: -43.877293629874 gnorm: 0.001384111559 xtb: 6.7.1 (edcfbbe)
C           -1.69764844130472        2.11705094407002       -1.53359776917745
C           -1.08431123254504        1.10292449110221       -0.57803565582102
C           -1.13785405443209       -0.36069545458801       -1.11662533180842
C           -2.55939382512490       -0.75638400566493       -1.34444544040810
C           -3.21825940814494       -1.61231250644996       -0.52784483635629
C           -2.54754723170217       -2.26657062876709        0.51677878684970
C           -1.15985670875748       -2.12480526698015        0.63191637963790
C           -0.43708152498617       -1.28225249995686       -0.16092402023037
C            1.07166032164494       -1.26555284600795       -0.06555994516061
C            1.72784803202063       -1.41007815355807       -1.44068543083518
C            1.56545478370120       -0.06828895233019        0.72952003434726
C            2.49638016336900        0.84110468563227        0.24483520158901
C            2.93139552002711        1.89542833263034        1.03228245766251
C            2.44686607156871        2.05738995377428        2.31714569617860
C            1.51599846011733        1.15813044371649        2.81036922653454
C            1.08286727160861        0.10778388274507        2.02411061407391
H           -1.51010617499101        3.12514543090783       -1.16843196430603
H           -1.25783981933884        2.02717521728521       -2.52560506001028
H           -2.77306798186260        1.98278077439850       -1.61754830727774
H           -1.60392307439922        1.13307633904892        0.38157892058430
H           -0.04115049991954        1.36578716001692       -0.40277943565524
H           -0.61442491633191       -0.34717459829764       -2.08139195484981
H           -3.06595036405062       -0.29189477082611       -2.17676232663093
H           -4.26494342447865       -1.82553952684137       -0.69587527871118
H           -3.08261597351526       -2.93040287260009        1.17742003276582
H           -0.64275599604202       -2.74504532281786        1.35294339954492
H            1.35836266800194       -2.15053956738472        0.51979660214013
H            2.79955824052112       -1.56167417169575       -1.33083086304076
H            1.56261289277277       -0.53401658749836       -2.06236595118677
H            1.31100142927306       -2.27708362177527       -1.94989834062208
H            2.89480300440018        0.74225929565542       -0.75292414473720
H            3.65656647878322        2.59165281144996        0.63561675811222
H            2.79288824405957        2.87607646380615        2.93142979330601
H            1.12985796138511        1.27489185144542        3.81291819105738
H            0.35440910867163       -0.58834672364320        2.41336996244171
35
 energy: -43.877317252557 gnorm: 0.000931194400 xtb: 6.7.1 (edcfbbe)
C           -1.68956970886413        2.11906157422887       -1.52825587054194
C           -1.08162943071804        1.10147192112505       -0.57271702879513
C           -1.13486319929648       -0.35998412864730       -1.11491026144304
C           -2.55741892018426       -0.75421866498427       -1.33925521842272
C           -3.21606654899992       -1.60494258531748       -0.51726191607367
C           -2.54303662461120       -2.26046754079570        0.52470026253284
C           -1.15448997554775       -2.12453922077809        0.63214532078747
C           -0.43232428359343       -1.28455646068544       -0.16364269662406
C            1.07648707976204       -1.27181898699490       -0.07097599390822
C            1.73045706059162       -1.41196042337992       -1.44743607676904
C            1.56941697282661       -0.07598557254910        0.72626420585321
C            2.50297371064455        0.83293175264692        0.24604156644196
C            2.92523040924895        1.89386597512673        1.03094186741746
C            2.42566899415958        2.06343348297241        2.30899552559386
C            1.49824726304848        1.15961989366548        2.80040444832438
C            1.07835393427514        0.10217053038194        2.01698599408222
H           -1.50908539280461        3.12517284960729       -1.15527848621183
H           -1.24032059572074        2.03629506927998       -2.51631151259916
H           -2.76338170819171        1.98149636564166       -1.62274464458008
H           -1.60631898638905        1.13023486221992        0.38392186593172
H           -0.03939512881951        1.36310937552445       -0.39149876607246
H           -0.61357030079097       -0.34390412781796       -2.08131305539804
H           -3.06463435250349       -0.29069202409868       -2.17145184043408
H           -4.26441302853631       -1.81527631955157       -0.67954609350247
H           -3.07630831707944       -2.92085601178916        1.18940920157641
H           -0.63712677076207       -2.74906820446876        1.35033115591486
H            1.36136944355709       -2.15873198506755        0.51164306684214
H            2.80184213161843       -1.56648049946379       -1.33997513906559
H            1.56591635191410       -0.53223337271742       -2.06406130414116
H            1.31058284351229       -2.27547412095269       -1.95992538021826
H            2.91290876225930        0.72871401929935       -0.74637901208583
H            3.65174816904051        2.59043956102441        0.63760262239778
H            2.75712374030536        2.89103676237336        2.91902780554367
H            1.10325756557484        1.27884720319470        3.79891417819606
H            0.35216884107304       -0.59671094825111        2.40551120945126
35
 energy: -43.877326798088 gnorm: 0.000670095223 xtb: 6.7.1 (edcfbbe)
C           -1.68879387009998        2.11940255139196       -1.52957467975397
C           -1.07986491222067        1.10360169623685       -0.57259721656565
C           -1.13440365718151       -0.35869137577562       -1.11313006086596
C           -2.55795063531709       -0.75152444365915       -1.33526378101947
C           -3.21573785958867       -1.60378054649021       -0.51442760993205
C           -2.54152869871901       -2.26290871696705        0.52469098025144
C           -1.15316089551409       -2.12612233287716        0.63169287125246
C           -0.43165242967777       -1.28413933151385       -0.16291994123772
C            1.07721367719223       -1.27311344527926       -0.07095949963152
C            1.73028710552083       -1.41226042720082       -1.44796485934241
C            1.57083076717950       -0.07808308478127        0.72676137314003
C            2.50513629115837        0.83039281273044        0.24710153670756
C            2.92450533546449        1.89314295356431        1.03087617773348
C            2.42137115625928        2.06489625138895        2.30698429075377
C            1.49491584816799        1.16031478702755        2.79890785268801
C            1.07808442123288        0.10086631043176        2.01680581620085
H           -1.51323629155891        3.12614025023219       -1.15619042220418
H           -1.23671052624864        2.03820902467358       -2.51633472821374
H           -2.76180252062530        1.97793359285057       -1.62685979726243
H           -1.60388245103830        1.13382149618401        0.38438368423030
H           -0.03750909314285        1.36546510572461       -0.39244869093180
H           -0.61448072209882       -0.34355218386468       -2.08035414827243
H           -3.06671697232007       -0.28527134657134       -2.16493450517160
H           -4.26462315705395       -1.81197723817627       -0.67552446588489