      -----------------------------------------------------------      
     |                   =====================                   |     
     |                           x T B                           |     
     |                   =====================                   |     
     |                         S. Grimme                         |     
     |          Mulliken Center for Theoretical Chemistry        |     
     |                    University of Bonn                     |     
      -----------------------------------------------------------      

   * xtb version 6.7.1 (edcfbbe) compiled by 'conda@c0858423619e' on 2025-09-04

   xtb is free software: you can redistribute it and/or modify it under
   the terms of the GNU Lesser General Public License as published by
   the Free Software Foundation, either version 3 of the License, or
   (at your option) any later version.
   
   xtb is distributed in the hope that it will be useful,
   but WITHOUT ANY WARRANTY; without even the implied warranty of
   MERCHANTABILITY or FITNESS FOR A PARTICULAR PURPOSE.  See the
   GNU Lesser General Public License for more details.
   
   Cite this work as:
   * C. Bannwarth, E. Caldeweyher, S. Ehlert, A. Hansen, P. Pracht,
     J. Seibert, S. Spicher, S. Grimme, WIREs Comput. Mol. Sci., 2020, 11,
     e01493. DOI: 10.1002/wcms.1493
   
   for GFN2-xTB:
   * C. Bannwarth, S. Ehlert and S. Grimme., J. Chem. Theory Comput., 2019,
     15, 1652-1671. DOI: 10.1021/acs.jctc.8b01176
   for GFN1-xTB:
   * S. Grimme, C. Bannwarth, P. Shushkov, J. Chem. Theory Comput., 2017,
     13, 1989-2009. DOI: 10.1021/acs.jctc.7b00118
   for GFN0-xTB:
   * P. Pracht, E. Caldeweyher, S. Ehlert, S. Grimme, ChemRxiv, 2019, preprint.
     DOI: 10.26434/chemrxiv.8326202.v1
   for GFN-FF:
   * S. Spicher and S. Grimme, Angew. Chem. Int. Ed., 2020, 59, 15665-15673.
     DOI: 10.1002/anie.202004239
   
   for ALPB and GBSA implicit solvation:
   * S. Ehlert, M. Stahn, S. Spicher, S. Grimme, J. Chem. Theory Comput.,
     2021, 17, 4250-4261. DOI: 10.1021/acs.jctc.1c00471
   
   for ddCOSMO and CPCM-X implicit solvation:
   * M. Stahn, S. Ehlert, S. Grimme, J. Phys. Chem. A,
     2023, XX, XXXX-XXXX. DOI: 10.1021/acs.jpca.3c04382
   
   for DFT-D4:
   * E. Caldeweyher, C. Bannwarth and S. Grimme, J. Chem. Phys., 2017,
     147, 034112. DOI: 10.1063/1.4993215
   * E. Caldeweyher, S. Ehlert, A. Hansen, H. Neugebauer, S. Spicher,
     C. Bannwarth and S. Grimme, J. Chem. Phys., 2019, 150, 154122.
     DOI: 10.1063/1.5090222
   * E. Caldeweyher, J.-M. Mewes, S. Ehlert and S. Grimme, Phys. Chem. Chem. Phys.
     2020, 22, 8499-8512. DOI: 10.1039/D0CP00502A
   
   for sTDA-xTB:
   * S. Grimme and C. Bannwarth, J. Chem. Phys., 2016, 145, 054103.
     DOI: 10.1063/1.4959605
   
   in the mass-spec context:
   * V. Asgeirsson, C. Bauer and S. Grimme, Chem. Sci., 2017, 8, 4879.
     DOI: 10.1039/c7sc00601b
   * J. Koopman and S. Grimme, ACS Omega 2019, 4, 12, 15120-15133.
     DOI: 10.1021/acsomega.9b02011
   
   for metadynamics refer to:
   * S. Grimme, J. Chem. Theory Comput., 2019, 155, 2847-2862
     DOI: 10.1021/acs.jctc.9b00143
   
   for SPH calculations refer to:
   * S. Spicher and S. Grimme, J. Chem. Theory Comput., 2021, 17, 1701-1714
     DOI: 10.1021/acs.jctc.0c01306
   
   for ONIOM refer to:
   * C. Plett, A. Katbashev, S. Ehlert, S. Grimme, M. Bursch,
     Phys. Chem. Chem. Phys., 2023, 25, 17860-17868. DOI: 10.1039/D3CP02178E
   
   for DIPRO refer to:
   * J. Kohn, N. Gildemeister, S. Grimme, D. Fazzi, A. Hansen,
     J. Chem. Phys., 2023, just accepted.
   
   for PTB refer to:
   * S. Grimme, M. Mueller, A. Hansen, J. Chem. Phys., 2023, 158, 124111.
     DOI: 10.1063/5.0137838
   
   with help from (in alphabetical order)
   P. Atkinson, C. Bannwarth, F. Bohle, G. Brandenburg, E. Caldeweyher
   M. Checinski, S. Dohm, S. Ehlert, S. Ehrlich, I. Gerasimov, C. Hölzer
   A. Katbashev, J. Kohn, J. Koopman, C. Lavigne, S. Lehtola, F. März, M. Müller,
   F. Musil, H. Neugebauer, J. Pisarek, C. Plett, P. Pracht, F. Pultar,
   J. Seibert, P. Shushkov, S. Spicher, M. Stahn, M. Steiner, T. Strunk,
   J. Stückrath, T. Rose, and J. Unsleber
   
 * started run on 2025/09/15 at 14:21:06.896     
   ID    Z sym.   atoms
    1    6 C      1-16
    2    1 H      17-35

           -------------------------------------------------
          |                Calculation Setup                |
           -------------------------------------------------

          program call               : /home/paufv/miniforge3/envs/htvs/bin/xtb gfn_opt.xyz --opt normal --parallel 4 --chrg 0 --uhf 0 --gfn2 --input xtb.inp
          coordinate file            : gfn_opt.xyz
          omp threads                :                     4

########################################################################
[WARNING] Please study the warnings concerning your input carefully
-3- set_opt: the key 'uhf' is not recognized by opt
-2- set_opt: the key 'charge' is not recognized by opt
-1- set_opt: the key 'method' is not recognized by opt
########################################################################

           -------------------------------------------------
          |                 G F N 2 - x T B                 |
           -------------------------------------------------

        Reference                      10.1021/acs.jctc.8b01176
      * Hamiltonian:
        H0-scaling (s, p, d)           1.850000    2.230000    2.230000
        zeta-weighting                 0.500000
      * Dispersion:
        s8                             2.700000
        a1                             0.520000
        a2                             5.000000
        s9                             5.000000
      * Repulsion:
        kExp                           1.500000    1.000000
        rExp                           1.000000
      * Coulomb:
        alpha                          2.000000
        third order                    shell-resolved
        anisotropic                    true
        a3                             3.000000
        a5                             4.000000
        cn-shift                       1.200000
        cn-exp                         4.000000
        max-rad                        5.000000

q/qsh data taken from xtbrestart
CAMM data taken from xtbrestart

          ...................................................
          :                      SETUP                      :
          :.................................................:
          :  # basis functions                  83          :
          :  # atomic orbitals                  83          :
          :  # shells                           51          :
          :  # electrons                        83          :
          :  max. iterations                   250          :
          :  Hamiltonian                  GFN2-xTB          :
          :  restarted?                       true          :
          :  GBSA solvation                  false          :
          :  PC potential                    false          :
          :  electronic temp.          300.0000000     K    :
          :  accuracy                    1.0000000          :
          :  -> integral cutoff          0.2500000E+02      :
          :  -> integral neglect         0.1000000E-07      :
          :  -> SCF convergence          0.1000000E-05 Eh   :
          :  -> wf. convergence          0.1000000E-03 e    :
          :  Broyden damping             0.4000000          :
          :  net charge                          0          :
          :  unpaired electrons                  0          :
          ...................................................

 iter      E             dE          RMSdq      gap      omega  full diag
   1    -44.6024930 -0.446025E+02  0.407E+00    2.09       0.0  T
   2    -44.6056183 -0.312523E-02  0.241E+00    2.04       1.0  T
   3    -44.6037916  0.182666E-02  0.306E-01    2.19       1.0  T
   4    -44.6066029 -0.281129E-02  0.105E-01    2.16       1.0  T
   5    -44.6066668 -0.638477E-04  0.560E-02    2.16       1.0  T
   6    -44.6067147 -0.479239E-04  0.234E-02    2.16       1.0  T
   7    -44.6067252 -0.104840E-04  0.755E-03    2.16       2.2  T
   8    -44.6067264 -0.122820E-05  0.352E-03    2.16       4.8  T
   9    -44.6067266 -0.205850E-06  0.149E-03    2.16      11.3  T
  10    -44.6067266 -0.200591E-07  0.693E-04    2.16      24.4  T
  11    -44.6067266 -0.131604E-07  0.209E-04    2.16      80.9  T

   *** convergence criteria satisfied after 11 iterations ***

         #    Occupation            Energy/Eh            Energy/eV
      -------------------------------------------------------------
         1        2.0000           -0.6377741             -17.3547
       ...           ...                  ...                  ...
        36        2.0000           -0.4174863             -11.3604
        37        2.0000           -0.4117024             -11.2030
        38        2.0000           -0.4082372             -11.1087
        39        2.0000           -0.3968304             -10.7983
        40        2.0000           -0.3945610             -10.7366
        41        2.0000           -0.3866890             -10.5223
        42        1.0000           -0.3008911              -8.1877 (HOMO)
        43                         -0.2215229              -6.0279 (LUMO)
        44                         -0.2202096              -5.9922
        45                         -0.2022769              -5.5042
        46                         -0.1324188              -3.6033
        47                         -0.0962035              -2.6178
       ...                                ...                  ...
        83                          0.6330641              17.2266
      -------------------------------------------------------------
                  HL-Gap            0.0793682 Eh            2.1597 eV
             Fermi-level           -0.3024985 Eh           -8.2314 eV

 SCC (total)                   0 d,  0 h,  0 min,  0.027 sec
 SCC setup                      ...        0 min,  0.000 sec (  0.471%)
 Dispersion                     ...        0 min,  0.000 sec (  0.978%)
 classical contributions        ...        0 min,  0.000 sec (  0.219%)
 integral evaluation            ...        0 min,  0.002 sec (  6.200%)
 iterations                     ...        0 min,  0.021 sec ( 76.555%)
 molecular gradient             ...        0 min,  0.004 sec ( 14.652%)
 printout                       ...        0 min,  0.000 sec (  0.891%)

         :::::::::::::::::::::::::::::::::::::::::::::::::::::
         ::                     SUMMARY                     ::
         :::::::::::::::::::::::::::::::::::::::::::::::::::::
         :: total energy             -43.868606804097 Eh    ::
         :: gradient norm              0.068804513716 Eh/a0 ::
         :: HOMO-LUMO gap              2.159717385025 eV    ::
         ::.................................................::
         :: SCC energy               -44.605977221482 Eh    ::
         :: -> isotropic ES            0.004147447225 Eh    ::
         :: -> anisotropic ES          0.009615905767 Eh    ::
         :: -> anisotropic XC          0.029731752766 Eh    ::
         :: -> dispersion             -0.036491364217 Eh    ::
         :: repulsion energy           0.737370417386 Eh    ::
         :: add. restraining           0.000000000000 Eh    ::
         :: total charge              -0.000000000000 e     ::
         :::::::::::::::::::::::::::::::::::::::::::::::::::::

      ----------------------------------------------------------- 
     |                   =====================                   |
     |                        A N C O P T                        |
     |                   =====================                   |
     |               Approximate Normal Coordinate               |
     |                Rational Function Optimizer                |
      ----------------------------------------------------------- 
      ----------------------------------------------------------- 
     |                   =====================                   |
     |                        A N C O P T                        |
     |                   =====================                   |
     |               Approximate Normal Coordinate               |
     |                Rational Function Optimizer                |
      ----------------------------------------------------------- 

          ...................................................
          :                      SETUP                      :
          :.................................................:
          :   optimization level            normal          :
          :   max. optcycles                   200          :
          :   ANC micro-cycles                  20          :
          :   degrees of freedom                99          :
          :.................................................:
          :   RF solver                   davidson          :
          :   write xtbopt.log                true          :
          :   linear?                        false          :
          :   energy convergence         0.5000000E-05 Eh   :
          :   grad. convergence          0.1000000E-02 Eh/α :
          :   maxmium RF displ.          1.0000000          :
          :   Hlow (freq-cutoff)         0.1000000E-01      :
          :   Hmax (freq-cutoff)         5.0000000          :
          :   S6 in model hess.         20.0000000          :
          ...................................................

generating ANC from exact Hessian ...
Using Lindh-Hessian (1995)
 Shifting diagonal of input Hessian by    9.5242946781773294E-003
 Lowest  eigenvalues of input Hessian
    0.000000    0.000000    0.000000    0.000000    0.000000    0.000000
    0.010000    0.010231    0.010815    0.011725    0.012243    0.012973
    0.013383    0.014848    0.016174    0.016865    0.018471    0.020625
 Highest eigenvalues
    1.691066    1.817157    1.823012    1.902306    1.927120    1.938397


........................................................................
.............................. CYCLE    1 ..............................
........................................................................

 iter      E             dE          RMSdq      gap      omega  full diag
   1    -44.6067266 -0.446067E+02  0.105E-04    2.16       0.0  T
   2    -44.6067266 -0.390372E-10  0.646E-05    2.16     261.8  T
   3    -44.6067266 -0.175504E-11  0.427E-05    2.16     395.6  T
     SCC iter.                  ...        0 min,  0.003 sec
     gradient                   ...        0 min,  0.003 sec
 * total energy  :   -43.8686068 Eh     change       -0.5051035E-09 Eh
   gradient norm :     0.0688043 Eh/α   predicted     0.0000000E+00 (-100.00%)
   displ. norm   :     0.3413351 α      lambda       -0.1127397E-01
   maximum displ.:     0.1324206 α      in ANC's #16, #12, #20, ...

........................................................................
.............................. CYCLE    2 ..............................
........................................................................

 iter      E             dE          RMSdq      gap      omega  full diag
   1    -44.6454416 -0.446454E+02  0.215E-01    2.21       0.0  T
   2    -44.6454532 -0.115616E-04  0.130E-01    2.21       1.0  T
   3    -44.6453488  0.104412E-03  0.535E-02    2.20       1.0  T
   4    -44.6454659 -0.117140E-03  0.652E-03    2.20       2.6  T
   5    -44.6454669 -0.955536E-06  0.257E-03    2.20       6.6  T
   6    -44.6454669 -0.272063E-07  0.102E-03    2.20      16.5  T
   7    -44.6454669 -0.821835E-08  0.475E-04    2.20      35.6  T
   8    -44.6454669 -0.502367E-08  0.167E-04    2.20     101.2  T
     SCC iter.                  ...        0 min,  0.007 sec
     gradient                   ...        0 min,  0.003 sec
 * total energy  :   -43.8763558 Eh     change       -0.7749009E-02 Eh
   gradient norm :     0.0294765 Eh/α   predicted    -0.6296191E-02 ( -18.75%)
   displ. norm   :     0.3101367 α      lambda       -0.3327830E-02
   maximum displ.:     0.1353391 α      in ANC's #12, #16, #7, ...

........................................................................
.............................. CYCLE    3 ..............................
........................................................................

 iter      E             dE          RMSdq      gap      omega  full diag
   1    -44.6640437 -0.446640E+02  0.140E-01    2.21       0.0  T
   2    -44.6640497 -0.603359E-05  0.847E-02    2.21       1.0  T
   3    -44.6639927  0.570166E-04  0.396E-02    2.21       1.0  T
   4    -44.6640564 -0.637037E-04  0.557E-03    2.21       3.0  T
   5    -44.6640572 -0.848406E-06  0.198E-03    2.21       8.6  T
   6    -44.6640573 -0.281804E-07  0.983E-04    2.21      17.2  T
   7    -44.6640573 -0.150521E-07  0.377E-04    2.21      44.8  T
     SCC iter.                  ...        0 min,  0.006 sec
     gradient                   ...        0 min,  0.003 sec
 * total energy  :   -43.8783176 Eh     change       -0.1961751E-02 Eh
   gradient norm :     0.0072146 Eh/α   predicted    -0.1824689E-02 (  -6.99%)
   displ. norm   :     0.2000617 α      lambda       -0.5642360E-03
   maximum displ.:     0.1025216 α      in ANC's #2, #12, #5, ...

........................................................................
.............................. CYCLE    4 ..............................
........................................................................

 iter      E             dE          RMSdq      gap      omega  full diag
   1    -44.6645294 -0.446645E+02  0.681E-02    2.20       0.0  T
   2    -44.6645299 -0.565545E-06  0.412E-02    2.20       1.0  T
   3    -44.6645087  0.212636E-04  0.228E-02    2.20       1.0  T
   4    -44.6645324 -0.237048E-04  0.189E-03    2.20       9.0  T
   5    -44.6645324 -0.653474E-07  0.878E-04    2.20      19.2  T
   6    -44.6645324 -0.757577E-08  0.343E-04    2.20      49.3  T
     SCC iter.                  ...        0 min,  0.005 sec
     gradient                   ...        0 min,  0.003 sec
 * total energy  :   -43.8787227 Eh     change       -0.4051443E-03 Eh
   gradient norm :     0.0046294 Eh/α   predicted    -0.2934144E-03 ( -27.58%)
   displ. norm   :     0.2237496 α      lambda       -0.3424970E-03
   maximum displ.:     0.1421923 α      in ANC's #2, #5, #7, ...

........................................................................
.............................. CYCLE    5 ..............................
........................................................................

 iter      E             dE          RMSdq      gap      omega  full diag
   1    -44.6633968 -0.446634E+02  0.631E-02    2.20       0.0  T
   2    -44.6633974 -0.566704E-06  0.375E-02    2.19       1.0  T
   3    -44.6633884  0.895887E-05  0.147E-02    2.19       1.2  T
   4    -44.6633983 -0.983354E-05  0.156E-03    2.19      10.8  T
   5    -44.6633983 -0.388452E-07  0.774E-04    2.19      21.8  T
   6    -44.6633983 -0.594876E-08  0.318E-04    2.19      53.2  T
     SCC iter.                  ...        0 min,  0.005 sec
     gradient                   ...        0 min,  0.003 sec
 * total energy  :   -43.8789544 Eh     change       -0.2317305E-03 Eh
   gradient norm :     0.0034850 Eh/α   predicted    -0.1798222E-03 ( -22.40%)
   displ. norm   :     0.1594928 α      lambda       -0.1388424E-03
   maximum displ.:     0.1149714 α      in ANC's #2, #5, #3, ...

........................................................................
.............................. CYCLE    6 ..............................
........................................................................

 iter      E             dE          RMSdq      gap      omega  full diag
   1    -44.6629587 -0.446630E+02  0.405E-02    2.19       0.0  T
   2    -44.6629589 -0.218840E-06  0.238E-02    2.19       1.0  T
   3    -44.6629582  0.654975E-06  0.415E-03    2.19       4.1  T
   4    -44.6629590 -0.744959E-06  0.898E-04    2.19      18.8  T
   5    -44.6629590 -0.166229E-07  0.456E-04    2.19      37.0  T
     SCC iter.                  ...        0 min,  0.004 sec
     gradient                   ...        0 min,  0.003 sec
 * total energy  :   -43.8790635 Eh     change       -0.1090511E-03 Eh
   gradient norm :     0.0030333 Eh/α   predicted    -0.7118738E-04 ( -34.72%)
   displ. norm   :     0.1584424 α      lambda       -0.1193708E-03
   maximum displ.:     0.1137093 α      in ANC's #2, #3, #5, ...

........................................................................
.............................. CYCLE    7 ..............................
........................................................................

 iter      E             dE          RMSdq      gap      omega  full diag
   1    -44.6629979 -0.446630E+02  0.482E-02    2.19       0.0  T
   2    -44.6629981 -0.187121E-06  0.283E-02    2.19       1.0  T
   3    -44.6629980  0.132774E-06  0.227E-03    2.19       7.4  T
   4    -44.6629982 -0.200985E-06  0.637E-04    2.19      26.5  T
   5    -44.6629982 -0.372120E-08  0.314E-04    2.19      53.8  T
     SCC iter.                  ...        0 min,  0.004 sec
     gradient                   ...        0 min,  0.003 sec
 * total energy  :   -43.8791605 Eh     change       -0.9700963E-04 Eh
   gradient norm :     0.0022489 Eh/α   predicted    -0.6118413E-04 ( -36.93%)
   displ. norm   :     0.1758235 α      lambda       -0.1063355E-03
   maximum displ.:     0.1239357 α      in ANC's #2, #3, #4, ...

........................................................................
.............................. CYCLE    8 ..............................
........................................................................

 iter      E             dE          RMSdq      gap      omega  full diag
   1    -44.6632352 -0.446632E+02  0.594E-02    2.19       0.0  T
   2    -44.6632355 -0.229876E-06  0.349E-02    2.19       1.0  T
   3    -44.6632351  0.336226E-06  0.321E-03    2.19       5.3  T
   4    -44.6632356 -0.431811E-06  0.767E-04    2.19      22.0  T
   5    -44.6632356 -0.949898E-08  0.452E-04    2.19      37.4  T
     SCC iter.                  ...        0 min,  0.004 sec
     gradient                   ...        0 min,  0.003 sec
 * total energy  :   -43.8792446 Eh     change       -0.8412794E-04 Eh
   gradient norm :     0.0017364 Eh/α   predicted    -0.5481309E-04 ( -34.85%)
   displ. norm   :     0.2459954 α      lambda       -0.7518660E-04
   maximum displ.:     0.1731546 α      in ANC's #2, #3, #4, ...

........................................................................
.............................. CYCLE    9 ..............................
........................................................................

 iter      E             dE          RMSdq      gap      omega  full diag
   1    -44.6635374 -0.446635E+02  0.845E-02    2.19       0.0  T
   2    -44.6635378 -0.431358E-06  0.496E-02    2.19       1.0  T
   3    -44.6635361  0.169142E-05  0.664E-03    2.19       2.5  T
   4    -44.6635380 -0.194794E-05  0.116E-03    2.19      14.5  T
   5    -44.6635381 -0.274588E-07  0.613E-04    2.19      27.6  T
   6    -44.6635381 -0.429596E-08  0.241E-04    2.19      70.3  T
     SCC iter.                  ...        0 min,  0.005 sec
     gradient                   ...        0 min,  0.003 sec
 * total energy  :   -43.8793227 Eh     change       -0.7805677E-04 Eh
   gradient norm :     0.0021033 Eh/α   predicted    -0.3860552E-04 ( -50.54%)
   displ. norm   :     0.0909163 α      lambda       -0.3484756E-04
   maximum displ.:     0.0647798 α      in ANC's #2, #3, #4, ...

........................................................................
.............................. CYCLE   10 ..............................
........................................................................

 iter      E             dE          RMSdq      gap      omega  full diag
   1    -44.6638828 -0.446639E+02  0.286E-02    2.19       0.0  T
   2    -44.6638828 -0.462330E-07  0.168E-02    2.19       1.0  T
   3    -44.6638825  0.272760E-06  0.258E-03    2.19       6.5  T
   4    -44.6638829 -0.308364E-06  0.424E-04    2.19      39.8  T
   5    -44.6638829 -0.358258E-08  0.214E-04    2.19      79.0  T
     SCC iter.                  ...        0 min,  0.004 sec
     gradient                   ...        0 min,  0.003 sec
 * total energy  :   -43.8793522 Eh     change       -0.2956505E-04 Eh
   gradient norm :     0.0015799 Eh/α   predicted    -0.1757047E-04 ( -40.57%)
   displ. norm   :     0.1830810 α      lambda       -0.4193406E-04
   maximum displ.:     0.1265472 α      in ANC's #2, #3, #6, ...

........................................................................
.............................. CYCLE   11 ..............................
........................................................................

 iter      E             dE          RMSdq      gap      omega  full diag
   1    -44.6641889 -0.446642E+02  0.548E-02    2.19       0.0  T
   2    -44.6641891 -0.171336E-06  0.322E-02    2.19       1.0  T
   3    -44.6641880  0.105453E-05  0.508E-03    2.19       3.3  T
   4    -44.6641892 -0.119392E-05  0.811E-04    2.19      20.8  T
   5    -44.6641892 -0.124123E-07  0.431E-04    2.19      39.2  T
   6    -44.6641892 -0.133268E-08  0.111E-04    2.19     152.4  T
     SCC iter.                  ...        0 min,  0.005 sec
     gradient                   ...        0 min,  0.003 sec
 * total energy  :   -43.8793890 Eh     change       -0.3671943E-04 Eh
   gradient norm :     0.0008944 Eh/α   predicted    -0.2128328E-04 ( -42.04%)
   displ. norm   :     0.0570743 α      lambda       -0.7872967E-05
   maximum displ.:     0.0423997 α      in ANC's #2, #3, #5, ...

........................................................................
.............................. CYCLE   12 ..............................
........................................................................

 iter      E             dE          RMSdq      gap      omega  full diag
   1    -44.6640075 -0.446640E+02  0.165E-02    2.19       0.0  T
   2    -44.6640076 -0.201917E-07  0.969E-03    2.19       1.7  T
   3    -44.6640075  0.778564E-07  0.151E-03    2.19      11.2  T
   4    -44.6640076 -0.907971E-07  0.234E-04    2.19      72.3  T
   5    -44.6640076 -0.556149E-09  0.136E-04    2.19     124.3  T
     SCC iter.                  ...        0 min,  0.004 sec
     gradient                   ...        0 min,  0.003 sec
 * total energy  :   -43.8793970 Eh     change       -0.7997542E-05 Eh
   gradient norm :     0.0007216 Eh/α   predicted    -0.3943020E-05 ( -50.70%)
   displ. norm   :     0.0599758 α      lambda       -0.8588037E-05
   maximum displ.:     0.0378036 α      in ANC's #2, #3, #5, ...

........................................................................
.............................. CYCLE   13 ..............................
........................................................................

 iter      E             dE          RMSdq      gap      omega  full diag
   1    -44.6640024 -0.446640E+02  0.177E-02    2.19       0.0  T
   2    -44.6640024 -0.196825E-07  0.104E-02    2.19       1.6  T
   3    -44.6640024  0.242824E-07  0.916E-04    2.19      18.5  T
   4    -44.6640024 -0.320642E-07  0.251E-04    2.19      67.3  T
     SCC iter.                  ...        0 min,  0.003 sec
     gradient                   ...        0 min,  0.003 sec
 * total energy  :   -43.8794073 Eh     change       -0.1031246E-04 Eh
   gradient norm :     0.0007119 Eh/α   predicted    -0.4301231E-05 ( -58.29%)
   displ. norm   :     0.1067841 α      lambda       -0.1189360E-04
   maximum displ.:     0.0586566 α      in ANC's #2, #5, #3, ...

........................................................................
.............................. CYCLE   14 ..............................
........................................................................

 iter      E             dE          RMSdq      gap      omega  full diag
   1    -44.6638453 -0.446638E+02  0.315E-02    2.19       0.0  T
   2    -44.6638454 -0.653886E-07  0.185E-02    2.19       1.0  T
   3    -44.6638452  0.233398E-06  0.258E-03    2.19       6.5  T
   4    -44.6638454 -0.268654E-06  0.455E-04    2.19      37.2  T
   5    -44.6638454 -0.327653E-08  0.209E-04    2.19      81.0  T
     SCC iter.                  ...        0 min,  0.004 sec
     gradient                   ...        0 min,  0.003 sec
 * total energy  :   -43.8794202 Eh     change       -0.1292232E-04 Eh
   gradient norm :     0.0008391 Eh/α   predicted    -0.5977411E-05 ( -53.74%)
   displ. norm   :     0.1060356 α      lambda       -0.7987503E-05
   maximum displ.:     0.0550775 α      in ANC's #2, #5, #3, ...

........................................................................
.............................. CYCLE   15 ..............................
........................................................................

 iter      E             dE          RMSdq      gap      omega  full diag
   1    -44.6638161 -0.446638E+02  0.314E-02    2.19       0.0  T
   2    -44.6638162 -0.777895E-07  0.185E-02    2.19       1.0  T
   3    -44.6638160  0.212134E-06  0.243E-03    2.19       7.0  T
   4    -44.6638162 -0.244516E-06  0.532E-04    2.19      31.8  T
   5    -44.6638162 -0.605107E-08  0.214E-04    2.19      79.1  T
     SCC iter.                  ...        0 min,  0.004 sec
     gradient                   ...        0 min,  0.003 sec
 * total energy  :   -43.8794281 Eh     change       -0.7873468E-05 Eh
   gradient norm :     0.0006269 Eh/α   predicted    -0.4016052E-05 ( -48.99%)
   displ. norm   :     0.0809123 α      lambda       -0.5030143E-05
   maximum displ.:     0.0394675 α      in ANC's #2, #5, #1, ...

........................................................................
.............................. CYCLE   16 ..............................
........................................................................

 iter      E             dE          RMSdq      gap      omega  full diag
   1    -44.6639243 -0.446639E+02  0.243E-02    2.19       0.0  T
   2    -44.6639243 -0.420039E-07  0.143E-02    2.19       1.2  T
   3    -44.6639242  0.149040E-06  0.205E-03    2.19       8.2  T
   4    -44.6639244 -0.170027E-06  0.374E-04    2.19      45.2  T
   5    -44.6639244 -0.259675E-08  0.164E-04    2.19     103.0  T
     SCC iter.                  ...        0 min,  0.004 sec
     gradient                   ...        0 min,  0.003 sec
 * total energy  :   -43.8794328 Eh     change       -0.4773799E-05 Eh
   gradient norm :     0.0003946 Eh/α   predicted    -0.2524188E-05 ( -47.12%)
   displ. norm   :     0.0567598 α      lambda       -0.3762961E-05
   maximum displ.:     0.0278567 α      in ANC's #1, #5, #2, ...

   *** GEOMETRY OPTIMIZATION CONVERGED AFTER 16 ITERATIONS ***

------------------------------------------------------------------------
 total energy gain   :        -0.0108260 Eh       -6.7934 kcal/mol
 total RMSD          :         0.2993713 a0        0.1584 Å
 total power (kW/mol):        -1.7764860 (step) -172.7361 (real)
------------------------------------------------------------------------

 ANCopt (total)                0 d,  0 h,  0 min,  0.165 sec
 optimizer setup                ...        0 min,  0.000 sec (  0.038%)
 model hessian                  ...        0 min,  0.013 sec (  8.077%)
 ANC generation                 ...        0 min,  0.001 sec (  0.445%)
 coordinate transformation      ...        0 min,  0.000 sec (  0.058%)
 single point calculation       ...        0 min,  0.148 sec ( 89.958%)
 optimization log               ...        0 min,  0.001 sec (  0.648%)
 hessian update                 ...        0 min,  0.000 sec (  0.085%)
 rational function              ...        0 min,  0.001 sec (  0.467%)

================
 final structure:
================
35
 xtb: 6.7.1 (edcfbbe)
C            1.34593544613807        1.76968519083512        0.52725524261454
C            1.12753695561542        1.15644900165168       -0.84754424107633
C            1.49807301075648       -0.35529584531838       -0.88630952208940
C            2.95328919488581       -0.50027044458417       -0.58424134862708
C            3.42065483683558       -1.15185629563513        0.50623251756685
C            2.53921403731093       -1.79475248393669        1.38861759148717
C            1.17188769741066       -1.82279371580008        1.09430398383095
C            0.63313666043834       -1.18850018309469        0.01303955621834
C           -0.83755222902350       -1.35796892804489       -0.29940972771836
C           -1.06929732817001       -1.76414999589654       -1.75652999882830
C           -1.63207817309932       -0.13815623589734        0.13334643790615
C           -2.37135696103823        0.64799210135501       -0.74031936898765
C           -3.07370637518334        1.74954298966846       -0.27903682917247
C           -3.05290688871542        2.08285098537997        1.06264507762423
C           -2.32936582265832        1.29938369104631        1.94587494139410
C           -1.62990460502550        0.20079316338038        1.48368361855769
H            2.38679957886898        1.67512452111664        0.82815103542870
H            0.72718046858951        1.27078010870280        1.26843777245145
H            1.08028579109079        2.82464813616956        0.51348566212862
H            0.08502336162427        1.27957507296461       -1.13997100296842
H            1.74968561959699        1.67584442013702       -1.58037497583406
H            1.33222267742802       -0.66663356062445       -1.92992081531777
H            3.63078943063893       -0.01102422633777       -1.26936929251190
H            4.48392496450877       -1.19671981953706        0.69779506330958
H            2.91579558552319       -2.30453079207539        2.26083051341109
H            0.52571461629348       -2.40413090968662        1.74037405356988
H           -1.19622764498140       -2.18755899040720        0.32481688003695
H           -2.11674776533990       -2.01338613504102       -1.91281488558122
H           -0.47027316253425       -2.64349909278547       -1.98553634032649
H           -0.79346714332232       -0.97218824610042       -2.44765843435785
H           -2.41090828790859        0.41310291735628       -1.79261092508136
H           -3.64101844785611        2.34916611623839       -0.97656107191010
H           -3.60054718393561        2.94258222168204        1.41923767613958
H           -2.31160278698988        1.54442393083937        2.99790795972389
H           -1.07018912776853       -0.40852866771843        2.17927319698977

 Bond Distances (Angstroems)
 ---------------------------
C1-C2=1.5211         C1-H17=1.0876        C1-H18=1.0868        C1-H19=1.0880        C2-C1=1.5211         C2-C3=1.5570         
C2-H20=1.0897        C2-H21=1.0926        C3-C2=1.5570         C3-C4=1.4933         C3-C8=1.5004         C3-H22=1.1016        
C4-C3=1.4933         C4-C5=1.3536         C4-H23=1.0806        C5-C4=1.3536         C5-C6=1.4032         C5-H24=1.0813        
C6-C5=1.4032         C6-C7=1.3989         C6-H25=1.0782        C7-C6=1.3989         C7-C8=1.3644         C7-H26=1.0830        
C8-C3=1.5004         C8-C7=1.3644         C8-C9=1.5130         C9-C8=1.5130         C9-C10=1.5303        C9-C11=1.5187        
C9-H27=1.0984        C10-C9=1.5303        C10-H28=1.0880       C10-H29=1.0884       C10-H30=1.0867       C11-C9=1.5187        
C11-C12=1.3885       C11-C16=1.3922       C12-C11=1.3885       C12-C13=1.3855       C12-H31=1.0789       C13-C12=1.3855       
C13-C14=1.3826       C13-H32=1.0807       C14-C13=1.3826       C14-C15=1.3847       C14-H33=1.0799       C15-C14=1.3847       
C15-C16=1.3819       C15-H34=1.0803       C16-C11=1.3922       C16-C15=1.3819       C16-H35=1.0809       H17-C1=1.0876        
H18-C1=1.0868        H19-C1=1.0880        H20-C2=1.0897        H21-C2=1.0926        H22-C3=1.1016        H23-C4=1.0806        
H24-C5=1.0813        H25-C6=1.0782        H26-C7=1.0830        H27-C9=1.0984        H28-C10=1.0880       H29-C10=1.0884       
H30-C10=1.0867       H31-C12=1.0789       H32-C13=1.0807       H33-C14=1.0799       H34-C15=1.0803       H35-C16=1.0809       
 C  H  Rav=1.0859 sigma=0.0064  Rmin=1.0782  Rmax=1.1016    19
 C  C  Rav=1.4394 sigma=0.0687  Rmin=1.3536  Rmax=1.5570    17

 selected bond angles (degree)
 --------------------
H17-C1-C2=110.63               H18-C1-C2=110.46               H18-C1-H17=108.44              H19-C1-C2=110.15               
H19-C1-H17=108.75              H19-C1-H18=108.35              C3-C2-C1=112.32                H20-C2-C1=109.53               
H20-C2-C3=109.31               H21-C2-C1=109.44               H21-C2-C3=108.02               H21-C2-H20=108.12              
C4-C3-C2=108.73                C8-C3-C2=112.77                C8-C3-C4=112.74                H22-C3-C2=105.20               
H22-C3-C4=108.11               H22-C3-C8=108.91               C5-C4-C3=123.11                H23-C4-C3=116.02               
H23-C4-C5=120.81               C6-C5-C4=120.68                H24-C5-C4=120.15               H24-C5-C6=119.16               
C7-C6-C5=119.40                H25-C6-C5=120.39               H25-C6-C7=120.14               C8-C7-C6=122.91                
H26-C7-C6=117.93               H26-C7-C8=119.12               C7-C8-C3=120.37                C9-C8-C3=119.92                
C9-C8-C7=119.69                C10-C9-C8=111.93               C11-C9-C8=111.08               C11-C9-C10=113.91              
H27-C9-C8=106.54               H27-C9-C10=106.93              H27-C9-C11=105.89              H28-C10-C9=110.08              
H29-C10-C9=109.36              H29-C10-H28=108.34             H30-C10-C9=111.94              H30-C10-H28=108.66             
H30-C10-H29=108.38             

 selected dihedral angles (degree)
 ---------------------------------
C3-C2-C1-H17= 59.52           C3-C2-C1-H18=299.44           C3-C2-C1-H19=179.79           H20-C2-C1-H17=181.19          
H20-C2-C1-H18= 61.10          H20-C2-C1-H19=301.45          H21-C2-C1-H17=299.56          H21-C2-C1-H18=179.48          
H21-C2-C1-H19= 59.82          C4-C3-C2-C1=297.58            C4-C3-C2-H20=175.79           C4-C3-C2-H21= 58.36           
C8-C3-C2-C1= 63.39            C8-C3-C2-H20=301.60           C8-C3-C2-H21=184.17           H22-C3-C2-C1=181.96           
H22-C3-C2-H20= 60.17          H22-C3-C2-H21=302.75          C5-C4-C3-C2=116.51            C5-C4-C3-C8=350.68            
C5-C4-C3-H22=230.23           H23-C4-C3-C2=299.23           H23-C4-C3-C8=173.40           H23-C4-C3-H22= 52.94          
C6-C5-C4-C3=  3.32            C6-C5-C4-H23=180.48           H24-C5-C4-C3=182.27           H24-C5-C4-H23=359.43          
C7-C6-C5-C4=  3.56            C7-C6-C5-H24=184.60           H25-C6-C5-C4=180.58           H25-C6-C5-H24=  1.62          
C8-C7-C6-C5=356.45            C8-C7-C6-H25=179.42           H26-C7-C6-C5=174.32           H26-C7-C6-H25=357.29          
C7-C8-C3-C2=245.50            C7-C8-C3-C4=  9.12            C7-C8-C3-H22=129.11           C9-C8-C3-C2= 67.14            
C9-C8-C3-C4=190.76            C9-C8-C3-H22=310.75           C3-C8-C7-C6=356.73            C3-C8-C7-H26=178.88           
C9-C8-C7-C6=175.09            C9-C8-C7-H26=357.24           C10-C9-C8-C3= 49.48           C10-C9-C8-C7=231.11           
C11-C9-C8-C3=280.91           C11-C9-C8-C7=102.54           H27-C9-C8-C3=166.04           H27-C9-C8-C7=347.66           
H28-C10-C9-C8=172.06          H28-C10-C9-C11=299.13         H28-C10-C9-H27= 55.74         H29-C10-C9-C8= 53.15          
H29-C10-C9-C11=180.21         H29-C10-C9-H27=296.83         H30-C10-C9-C8=293.03          H30-C10-C9-C11= 60.09         
H30-C10-C9-H27=176.71         
           -------------------------------------------------
          |                Final Singlepoint                |
           -------------------------------------------------

          ...................................................
          :                      SETUP                      :
          :.................................................:
          :  # basis functions                  83          :
          :  # atomic orbitals                  83          :
          :  # shells                           51          :
          :  # electrons                        83          :
          :  max. iterations                   250          :
          :  Hamiltonian                  GFN2-xTB          :
          :  restarted?                      false          :
          :  GBSA solvation                  false          :
          :  PC potential                    false          :
          :  electronic temp.          300.0000000     K    :
          :  accuracy                    1.0000000          :
          :  -> integral cutoff          0.2500000E+02      :
          :  -> integral neglect         0.1000000E-07      :
          :  -> SCF convergence          0.1000000E-05 Eh   :
          :  -> wf. convergence          0.1000000E-03 e    :
          :  Broyden damping             0.4000000          :
          :  net charge                          0          :
          :  unpaired electrons                  0          :
          ...................................................

 iter      E             dE          RMSdq      gap      omega  full diag
   1    -44.6639244 -0.446639E+02  0.742E-05    2.19       0.0  T
   2    -44.6639244 -0.777334E-11  0.610E-05    2.19     277.2  T
   3    -44.6639244 -0.132140E-09  0.237E-05    2.19     713.1  T

   *** convergence criteria satisfied after 3 iterations ***

         #    Occupation            Energy/Eh            Energy/eV
      -------------------------------------------------------------
         1        2.0000           -0.6426557             -17.4876
       ...           ...                  ...                  ...
        36        2.0000           -0.4183214             -11.3831
        37        2.0000           -0.4113861             -11.1944
        38        2.0000           -0.4096481             -11.1471
        39        2.0000           -0.3985341             -10.8447
        40        2.0000           -0.3922527             -10.6737
        41        2.0000           -0.3870578             -10.5324
        42        1.0000           -0.2997843              -8.1575 (HOMO)
        43                         -0.2192627              -5.9664 (LUMO)
        44                         -0.2186639              -5.9501
        45                         -0.2040206              -5.5517
        46                         -0.1221561              -3.3240
        47                         -0.0897285              -2.4416
       ...                                ...                  ...
        83                          0.6682448              18.1839
      -------------------------------------------------------------
                  HL-Gap            0.0805216 Eh            2.1911 eV
             Fermi-level           -0.3014722 Eh           -8.2035 eV

 SCC (total)                   0 d,  0 h,  0 min,  0.007 sec
 SCC setup                      ...        0 min,  0.000 sec (  0.713%)
 Dispersion                     ...        0 min,  0.000 sec (  1.283%)
 classical contributions        ...        0 min,  0.000 sec (  0.324%)
 integral evaluation            ...        0 min,  0.001 sec ( 14.053%)
 iterations                     ...        0 min,  0.003 sec ( 37.184%)
 molecular gradient             ...        0 min,  0.003 sec ( 42.893%)
 printout                       ...        0 min,  0.000 sec (  3.430%)

         :::::::::::::::::::::::::::::::::::::::::::::::::::::
         ::                     SUMMARY                     ::
         :::::::::::::::::::::::::::::::::::::::::::::::::::::
         :: total energy             -43.879432848875 Eh    ::
         :: gradient norm              0.000394817090 Eh/a0 ::
         :: HOMO-LUMO gap              2.191104265928 eV    ::
         ::.................................................::
         :: SCC energy               -44.663163667838 Eh    ::
         :: -> isotropic ES            0.004382191460 Eh    ::
         :: -> anisotropic ES          0.008783361458 Eh    ::
         :: -> anisotropic XC          0.028425548455 Eh    ::
         :: -> dispersion             -0.038097915720 Eh    ::
         :: repulsion energy           0.783730818963 Eh    ::
         :: add. restraining           0.000000000000 Eh    ::
         :: total charge               0.000000000000 e     ::
         :::::::::::::::::::::::::::::::::::::::::::::::::::::

           -------------------------------------------------
          |                Property Printout                |
           -------------------------------------------------

    * Orbital Energies and Occupations

         #    Occupation            Energy/Eh            Energy/eV
      -------------------------------------------------------------
         1        2.0000           -0.6426557             -17.4876
       ...           ...                  ...                  ...
        30        2.0000           -0.4518287             -12.2949
        31        2.0000           -0.4433900             -12.0653
        32        2.0000           -0.4415603             -12.0155
        33        2.0000           -0.4333552             -11.7922
        34        2.0000           -0.4290943             -11.6762
        35        2.0000           -0.4229110             -11.5080
        36        2.0000           -0.4183214             -11.3831
        37        2.0000           -0.4113861             -11.1944
        38        2.0000           -0.4096481             -11.1471
        39        2.0000           -0.3985341             -10.8447
        40        2.0000           -0.3922527             -10.6737
        41        2.0000           -0.3870578             -10.5324
        42        1.0000           -0.2997843              -8.1575 (HOMO)
        43                         -0.2192627              -5.9664 (LUMO)
        44                         -0.2186639              -5.9501
        45                         -0.2040206              -5.5517
        46                         -0.1221561              -3.3240
        47                         -0.0897285              -2.4416
        48                          0.0741337               2.0173
        49                          0.0745418               2.0284
        50                          0.0921102               2.5064
        51                          0.1075895               2.9277
        52                          0.1143073               3.1105
        53                          0.1220146               3.3202
       ...                                ...                  ...
        83                          0.6682448              18.1839
      -------------------------------------------------------------
                  HL-Gap            0.0805216 Eh            2.1911 eV
             Fermi-level           -0.3014722 Eh           -8.2035 eV

     #   Z          covCN         q      C6AA      α(0)
     1   6 C        3.751    -0.100    22.470     6.760
     2   6 C        3.803    -0.049    21.453     6.594
     3   6 C        3.860    -0.015    20.800     6.486
     4   6 C        2.911    -0.041    29.023     8.834
     5   6 C        2.903    -0.032    28.804     8.800
     6   6 C        2.915    -0.045    29.110     8.847
     7   6 C        2.908    -0.038    28.941     8.821
     8   6 C        2.958    -0.000    28.035     8.685
     9   6 C        3.860    -0.022    20.930     6.506
    10   6 C        3.753    -0.099    22.457     6.757
    11   6 C        2.969     0.016    27.655     8.626
    12   6 C        2.924    -0.039    28.967     8.826
    13   6 C        2.920    -0.032    28.793     8.799
    14   6 C        2.920    -0.033    28.833     8.805
    15   6 C        2.919    -0.030    28.751     8.793
    16   6 C        2.927    -0.037    28.913     8.818
    17   1 H        0.925     0.036     2.501     2.473
    18   1 H        0.925     0.037     2.487     2.466
    19   1 H        0.925     0.031     2.577     2.511
    20   1 H        0.925     0.037     2.492     2.469
    21   1 H        0.924     0.030     2.585     2.514
    22   1 H        0.923     0.048     2.341     2.393
    23   1 H        0.926     0.023     2.694     2.567
    24   1 H        0.925     0.023     2.683     2.561
    25   1 H        0.926     0.022     2.698     2.569
    26   1 H        0.925     0.020     2.734     2.586
    27   1 H        0.923     0.041     2.435     2.440
    28   1 H        0.925     0.037     2.494     2.470
    29   1 H        0.925     0.034     2.525     2.485
    30   1 H        0.925     0.037     2.486     2.466
    31   1 H        0.926     0.032     2.556     2.500
    32   1 H        0.926     0.026     2.638     2.540
    33   1 H        0.926     0.027     2.632     2.537
    34   1 H        0.926     0.027     2.625     2.534
    35   1 H        0.926     0.028     2.619     2.531

 Mol. C6AA /au·bohr⁶  :      12657.408459
 Mol. C8AA /au·bohr⁸  :     299448.259916
 Mol. α(0) /au        :        177.369540


Wiberg/Mayer (AO) data.
largest (>0.10) Wiberg bond orders for each atom

 ---------------------------------------------------------------------------
     #   Z sym  total        # sym  WBO       # sym  WBO       # sym  WBO
 ---------------------------------------------------------------------------
     1   6 C    3.997 --     2 C    1.023    19 H    0.986    17 H    0.986
                            18 H    0.982
     2   6 C    3.992 --     1 C    1.023    21 H    0.977    20 H    0.970
                             3 C    0.932
     3   6 C    3.996 --     4 C    1.037     8 C    1.026     2 C    0.932
                            22 H    0.923
     4   6 C    3.922 --     5 C    1.634     3 C    1.037    23 H    0.971
     5   6 C    3.993 --     4 C    1.634     6 C    1.305    24 H    0.968
     6   6 C    3.876 --     7 C    1.334     5 C    1.305    25 H    0.974
     7   6 C    3.991 --     8 C    1.573     6 C    1.334    26 H    0.964
     8   6 C    3.914 --     7 C    1.573     3 C    1.026     9 C    0.994
     9   6 C    3.994 --    10 C    0.998     8 C    0.994    11 C    0.977
                            27 H    0.952
    10   6 C    3.996 --     9 C    0.998    29 H    0.986    28 H    0.985
                            30 H    0.981
    11   6 C    3.987 --    12 C    1.416    16 C    1.401     9 C    0.977
                            14 C    0.109
    12   6 C    3.990 --    13 C    1.435    11 C    1.416    31 H    0.966
                            15 C    0.108
    13   6 C    3.991 --    14 C    1.445    12 C    1.435    32 H    0.971
                            16 C    0.111
    14   6 C    3.991 --    13 C    1.445    15 C    1.431    33 H    0.972
                            11 C    0.109
    15   6 C    3.992 --    16 C    1.453    14 C    1.431    34 H    0.971
                            12 C    0.108
    16   6 C    3.992 --    15 C    1.453    11 C    1.401    35 H    0.968
                            13 C    0.111
    17   1 H    0.999 --     1 C    0.986
    18   1 H    0.999 --     1 C    0.982
    19   1 H    0.999 --     1 C    0.986
    20   1 H    0.998 --     2 C    0.970
    21   1 H    0.999 --     2 C    0.977
    22   1 H    0.996 --     3 C    0.923
    23   1 H    0.999 --     4 C    0.971
    24   1 H    0.998 --     5 C    0.968
    25   1 H    0.999 --     6 C    0.974
    26   1 H    0.999 --     7 C    0.964
    27   1 H    0.998 --     9 C    0.952
    28   1 H    0.998 --    10 C    0.985
    29   1 H    0.998 --    10 C    0.986
    30   1 H    0.999 --    10 C    0.981
    31   1 H    0.999 --    12 C    0.966
    32   1 H    0.999 --    13 C    0.971
    33   1 H    0.999 --    14 C    0.972
    34   1 H    0.999 --    15 C    0.971
    35   1 H    0.999 --    16 C    0.968
 ---------------------------------------------------------------------------

Topologies differ in total number of bonds
Writing topology from bond orders to xtbtopo.mol

molecular dipole:
                 x           y           z       tot (Debye)
 q only:       -0.166       0.022      -0.298
   full:       -0.177       0.030      -0.305       0.899
molecular quadrupole (traceless):
                xx          xy          yy          xz          yz          zz
 q only:       -1.891       1.309       0.052      -0.152       0.399       1.839
  q+dip:       -2.225      -0.675      -1.684       0.605      -2.259       3.909
   full:       -1.989       0.779      -0.521      -0.100      -0.657       2.510

           -------------------------------------------------
          |                Geometry Summary                 |
           -------------------------------------------------

      molecular mass/u    :      211.3226486
   center of mass at/Å    :       -0.0680216      -0.0607639       0.1531215
  moments of inertia/u·Å² :        0.5224624E+03   0.1308294E+04   0.1380899E+04
rotational constants/cm⁻¹ :        0.3226573E-01   0.1288521E-01   0.1220772E-01

 * 31 selected distances

     #   Z          #   Z                                           value/Å
     1   6 C        2   6 C                                       1.5211281
     4   6 C        5   6 C                                       1.3535614
     5   6 C        6   6 C                                       1.4031597
     6   6 C        7   6 C                                       1.3989240
     7   6 C        8   6 C                                       1.3644464
     9   6 C       10   6 C                                       1.5303231 (max)
    11   6 C       12   6 C                                       1.3884721
    12   6 C       13   6 C                                       1.3854570
    13   6 C       14   6 C                                       1.3826198
    14   6 C       15   6 C                                       1.3847123
    11   6 C       16   6 C                                       1.3922292
    15   6 C       16   6 C                                       1.3819437
     1   6 C       17   1 H                                       1.0876021
     1   6 C       18   1 H                                       1.0867915
     1   6 C       19   1 H                                       1.0879827
     2   6 C       20   1 H                                       1.0897285
     2   6 C       21   1 H                                       1.0926489
     3   6 C       22   1 H                                       1.1016180
     4   6 C       23   1 H                                       1.0806336
     5   6 C       24   1 H                                       1.0813198
     6   6 C       25   1 H                                       1.0781666 (min)
     7   6 C       26   1 H                                       1.0830048
     9   6 C       27   1 H                                       1.0984201
    10   6 C       28   1 H                                       1.0879781
    10   6 C       29   1 H                                       1.0883607
    10   6 C       30   1 H                                       1.0867127
    12   6 C       31   1 H                                       1.0789138
    13   6 C       32   1 H                                       1.0807086
    14   6 C       33   1 H                                       1.0799103
    15   6 C       34   1 H                                       1.0803397
    16   6 C       35   1 H                                       1.0809253

 * 2 distinct bonds (by element types)

   Z      Z             #   av. dist./Å        max./Å        min./Å
   1 H    6 C          19     1.0858824     1.1016180     1.0781666
   6 C    6 C          12     1.4072481     1.5303231     1.3535614


optimized geometry written to: xtbopt.xyz


           -------------------------------------------------
          | TOTAL ENERGY              -43.879432848875 Eh   |
          | GRADIENT NORM               0.000394817090 Eh/α |
          | HOMO-LUMO GAP               2.191104265928 eV   |
           -------------------------------------------------

------------------------------------------------------------------------
 * finished run on 2025/09/15 at 14:21:07.115     
------------------------------------------------------------------------
 total:
 * wall-time:     0 d,  0 h,  0 min,  0.219 sec
 *  cpu-time:     0 d,  0 h,  0 min,  0.856 sec
 * ratio c/w:     3.914 speedup
 SCF:
 * wall-time:     0 d,  0 h,  0 min,  0.027 sec
 *  cpu-time:     0 d,  0 h,  0 min,  0.104 sec
 * ratio c/w:     3.851 speedup
 ANC optimizer:
 * wall-time:     0 d,  0 h,  0 min,  0.172 sec
 *  cpu-time:     0 d,  0 h,  0 min,  0.690 sec
 * ratio c/w:     4.000 speedup

