      -----------------------------------------------------------      
     |                   =====================                   |     
     |                           x T B                           |     
     |                   =====================                   |     
     |                         S. Grimme                         |     
     |          Mulliken Center for Theoretical Chemistry        |     
     |                    University of Bonn                     |     
      -----------------------------------------------------------      

   * xtb version 6.7.1 (edcfbbe) compiled by 'conda@c0858423619e' on 2025-09-04

   xtb is free software: you can redistribute it and/or modify it under
   the terms of the GNU Lesser General Public License as published by
   the Free Software Foundation, either version 3 of the License, or
   (at your option) any later version.
   
   xtb is distributed in the hope that it will be useful,
   but WITHOUT ANY WARRANTY; without even the implied warranty of
   MERCHANTABILITY or FITNESS FOR A PARTICULAR PURPOSE.  See the
   GNU Lesser General Public License for more details.
   
   Cite this work as:
   * C. Bannwarth, E. Caldeweyher, S. Ehlert, A. Hansen, P. Pracht,
     J. Seibert, S. Spicher, S. Grimme, WIREs Comput. Mol. Sci., 2020, 11,
     e01493. DOI: 10.1002/wcms.1493
   
   for GFN2-xTB:
   * C. Bannwarth, S. Ehlert and S. Grimme., J. Chem. Theory Comput., 2019,
     15, 1652-1671. DOI: 10.1021/acs.jctc.8b01176
   for GFN1-xTB:
   * S. Grimme, C. Bannwarth, P. Shushkov, J. Chem. Theory Comput., 2017,
     13, 1989-2009. DOI: 10.1021/acs.jctc.7b00118
   for GFN0-xTB:
   * P. Pracht, E. Caldeweyher, S. Ehlert, S. Grimme, ChemRxiv, 2019, preprint.
     DOI: 10.26434/chemrxiv.8326202.v1
   for GFN-FF:
   * S. Spicher and S. Grimme, Angew. Chem. Int. Ed., 2020, 59, 15665-15673.
     DOI: 10.1002/anie.202004239
   
   for ALPB and GBSA implicit solvation:
   * S. Ehlert, M. Stahn, S. Spicher, S. Grimme, J. Chem. Theory Comput.,
     2021, 17, 4250-4261. DOI: 10.1021/acs.jctc.1c00471
   
   for ddCOSMO and CPCM-X implicit solvation:
   * M. Stahn, S. Ehlert, S. Grimme, J. Phys. Chem. A,
     2023, XX, XXXX-XXXX. DOI: 10.1021/acs.jpca.3c04382
   
   for DFT-D4:
   * E. Caldeweyher, C. Bannwarth and S. Grimme, J. Chem. Phys., 2017,
     147, 034112. DOI: 10.1063/1.4993215
   * E. Caldeweyher, S. Ehlert, A. Hansen, H. Neugebauer, S. Spicher,
     C. Bannwarth and S. Grimme, J. Chem. Phys., 2019, 150, 154122.
     DOI: 10.1063/1.5090222
   * E. Caldeweyher, J.-M. Mewes, S. Ehlert and S. Grimme, Phys. Chem. Chem. Phys.
     2020, 22, 8499-8512. DOI: 10.1039/D0CP00502A
   
   for sTDA-xTB:
   * S. Grimme and C. Bannwarth, J. Chem. Phys., 2016, 145, 054103.
     DOI: 10.1063/1.4959605
   
   in the mass-spec context:
   * V. Asgeirsson, C. Bauer and S. Grimme, Chem. Sci., 2017, 8, 4879.
     DOI: 10.1039/c7sc00601b
   * J. Koopman and S. Grimme, ACS Omega 2019, 4, 12, 15120-15133.
     DOI: 10.1021/acsomega.9b02011
   
   for metadynamics refer to:
   * S. Grimme, J. Chem. Theory Comput., 2019, 155, 2847-2862
     DOI: 10.1021/acs.jctc.9b00143
   
   for SPH calculations refer to:
   * S. Spicher and S. Grimme, J. Chem. Theory Comput., 2021, 17, 1701-1714
     DOI: 10.1021/acs.jctc.0c01306
   
   for ONIOM refer to:
   * C. Plett, A. Katbashev, S. Ehlert, S. Grimme, M. Bursch,
     Phys. Chem. Chem. Phys., 2023, 25, 17860-17868. DOI: 10.1039/D3CP02178E
   
   for DIPRO refer to:
   * J. Kohn, N. Gildemeister, S. Grimme, D. Fazzi, A. Hansen,
     J. Chem. Phys., 2023, just accepted.
   
   for PTB refer to:
   * S. Grimme, M. Mueller, A. Hansen, J. Chem. Phys., 2023, 158, 124111.
     DOI: 10.1063/5.0137838
   
   with help from (in alphabetical order)
   P. Atkinson, C. Bannwarth, F. Bohle, G. Brandenburg, E. Caldeweyher
   M. Checinski, S. Dohm, S. Ehlert, S. Ehrlich, I. Gerasimov, C. Hölzer
   A. Katbashev, J. Kohn, J. Koopman, C. Lavigne, S. Lehtola, F. März, M. Müller,
   F. Musil, H. Neugebauer, J. Pisarek, C. Plett, P. Pracht, F. Pultar,
   J. Seibert, P. Shushkov, S. Spicher, M. Stahn, M. Steiner, T. Strunk,
   J. Stückrath, T. Rose, and J. Unsleber
   
 * started run on 2025/09/15 at 14:52:49.456     
   ID    Z sym.   atoms
    1    6 C      1-16
    2    1 H      17-35

           -------------------------------------------------
          |                Calculation Setup                |
           -------------------------------------------------

          program call               : /home/paufv/miniforge3/envs/htvs/bin/xtb gfn_opt.xyz --opt normal --parallel 4 --chrg 0 --uhf 0 --gfn2 --input xtb.inp
          coordinate file            : gfn_opt.xyz
          omp threads                :                     4

########################################################################
[WARNING] Please study the warnings concerning your input carefully
-3- set_opt: the key 'uhf' is not recognized by opt
-2- set_opt: the key 'charge' is not recognized by opt
-1- set_opt: the key 'method' is not recognized by opt
########################################################################

           -------------------------------------------------
          |                 G F N 2 - x T B                 |
           -------------------------------------------------

        Reference                      10.1021/acs.jctc.8b01176
      * Hamiltonian:
        H0-scaling (s, p, d)           1.850000    2.230000    2.230000
        zeta-weighting                 0.500000
      * Dispersion:
        s8                             2.700000
        a1                             0.520000
        a2                             5.000000
        s9                             5.000000
      * Repulsion:
        kExp                           1.500000    1.000000
        rExp                           1.000000
      * Coulomb:
        alpha                          2.000000
        third order                    shell-resolved
        anisotropic                    true
        a3                             3.000000
        a5                             4.000000
        cn-shift                       1.200000
        cn-exp                         4.000000
        max-rad                        5.000000

q/qsh data taken from xtbrestart
CAMM data taken from xtbrestart

          ...................................................
          :                      SETUP                      :
          :.................................................:
          :  # basis functions                  83          :
          :  # atomic orbitals                  83          :
          :  # shells                           51          :
          :  # electrons                        83          :
          :  max. iterations                   250          :
          :  Hamiltonian                  GFN2-xTB          :
          :  restarted?                       true          :
          :  GBSA solvation                  false          :
          :  PC potential                    false          :
          :  electronic temp.          300.0000000     K    :
          :  accuracy                    1.0000000          :
          :  -> integral cutoff          0.2500000E+02      :
          :  -> integral neglect         0.1000000E-07      :
          :  -> SCF convergence          0.1000000E-05 Eh   :
          :  -> wf. convergence          0.1000000E-03 e    :
          :  Broyden damping             0.4000000          :
          :  net charge                          0          :
          :  unpaired electrons                  0          :
          ...................................................

 iter      E             dE          RMSdq      gap      omega  full diag
   1    -44.6011336 -0.446011E+02  0.599E+00    2.10       0.0  T
   2    -44.6068715 -0.573793E-02  0.355E+00    2.01       1.0  T
   3    -44.6001583  0.671320E-02  0.535E-01    2.26       1.0  T
   4    -44.6087224 -0.856404E-02  0.153E-01    2.18       1.0  T
   5    -44.6089270 -0.204665E-03  0.862E-02    2.16       1.0  T
   6    -44.6090327 -0.105687E-03  0.344E-02    2.17       1.0  T
   7    -44.6090544 -0.216895E-04  0.962E-03    2.16       1.8  T
   8    -44.6090556 -0.120118E-05  0.415E-03    2.16       4.1  T
   9    -44.6090558 -0.202314E-06  0.162E-03    2.16      10.4  T
  10    -44.6090558 -0.128884E-07  0.459E-04    2.16      36.8  T
  11    -44.6090558 -0.294418E-08  0.201E-04    2.16      84.2  T

   *** convergence criteria satisfied after 11 iterations ***

         #    Occupation            Energy/Eh            Energy/eV
      -------------------------------------------------------------
         1        2.0000           -0.6380295             -17.3617
       ...           ...                  ...                  ...
        36        2.0000           -0.4169903             -11.3469
        37        2.0000           -0.4115663             -11.1993
        38        2.0000           -0.4038526             -10.9894
        39        2.0000           -0.3974254             -10.8145
        40        2.0000           -0.3942511             -10.7281
        41        2.0000           -0.3897281             -10.6050
        42        1.0000           -0.3008892              -8.1876 (HOMO)
        43                         -0.2214816              -6.0268 (LUMO)
        44                         -0.2199836              -5.9861
        45                         -0.2023275              -5.5056
        46                         -0.1328048              -3.6138
        47                         -0.0959484              -2.6109
       ...                                ...                  ...
        83                          0.6336065              17.2413
      -------------------------------------------------------------
                  HL-Gap            0.0794076 Eh            2.1608 eV
             Fermi-level           -0.3032470 Eh           -8.2518 eV

 SCC (total)                   0 d,  0 h,  0 min,  0.025 sec
 SCC setup                      ...        0 min,  0.000 sec (  0.506%)
 Dispersion                     ...        0 min,  0.000 sec (  1.023%)
 classical contributions        ...        0 min,  0.000 sec (  0.198%)
 integral evaluation            ...        0 min,  0.001 sec (  5.854%)
 iterations                     ...        0 min,  0.019 sec ( 77.834%)
 molecular gradient             ...        0 min,  0.003 sec ( 13.576%)
 printout                       ...        0 min,  0.000 sec (  0.972%)

         :::::::::::::::::::::::::::::::::::::::::::::::::::::
         ::                     SUMMARY                     ::
         :::::::::::::::::::::::::::::::::::::::::::::::::::::
         :: total energy             -43.870476825446 Eh    ::
         :: gradient norm              0.073804001931 Eh/a0 ::
         :: HOMO-LUMO gap              2.160789600388 eV    ::
         ::.................................................::
         :: SCC energy               -44.608637596665 Eh    ::
         :: -> isotropic ES            0.004120918831 Eh    ::
         :: -> anisotropic ES          0.009548109014 Eh    ::
         :: -> anisotropic XC          0.029800031911 Eh    ::
         :: -> dispersion             -0.035385312747 Eh    ::
         :: repulsion energy           0.738160771218 Eh    ::
         :: add. restraining           0.000000000000 Eh    ::
         :: total charge              -0.000000000000 e     ::
         :::::::::::::::::::::::::::::::::::::::::::::::::::::

      ----------------------------------------------------------- 
     |                   =====================                   |
     |                        A N C O P T                        |
     |                   =====================                   |
     |               Approximate Normal Coordinate               |
     |                Rational Function Optimizer                |
      ----------------------------------------------------------- 
      ----------------------------------------------------------- 
     |                   =====================                   |
     |                        A N C O P T                        |
     |                   =====================                   |
     |               Approximate Normal Coordinate               |
     |                Rational Function Optimizer                |
      ----------------------------------------------------------- 

          ...................................................
          :                      SETUP                      :
          :.................................................:
          :   optimization level            normal          :
          :   max. optcycles                   200          :
          :   ANC micro-cycles                  20          :
          :   degrees of freedom                99          :
          :.................................................:
          :   RF solver                   davidson          :
          :   write xtbopt.log                true          :
          :   linear?                        false          :
          :   energy convergence         0.5000000E-05 Eh   :
          :   grad. convergence          0.1000000E-02 Eh/α :
          :   maxmium RF displ.          1.0000000          :
          :   Hlow (freq-cutoff)         0.1000000E-01      :
          :   Hmax (freq-cutoff)         5.0000000          :
          :   S6 in model hess.         20.0000000          :
          ...................................................

generating ANC from exact Hessian ...
Using Lindh-Hessian (1995)
 Shifting diagonal of input Hessian by    9.5028633799994332E-003
 Lowest  eigenvalues of input Hessian
    0.000000    0.000000    0.000000    0.000000    0.000000    0.000000
    0.010000    0.010459    0.010617    0.011452    0.011517    0.012775
    0.014129    0.015775    0.016034    0.017031    0.017928    0.019568
 Highest eigenvalues
    1.695634    1.823615    1.831628    1.904309    1.927230    1.938007


........................................................................
.............................. CYCLE    1 ..............................
........................................................................

 iter      E             dE          RMSdq      gap      omega  full diag
   1    -44.6090558 -0.446091E+02  0.994E-05    2.16       0.0  T
   2    -44.6090558 -0.580229E-10  0.735E-05    2.16     229.9  T
   3    -44.6090558 -0.967049E-10  0.375E-05    2.16     450.6  T
     SCC iter.                  ...        0 min,  0.003 sec
     gradient                   ...        0 min,  0.003 sec
 * total energy  :   -43.8704768 Eh     change       -0.2125446E-09 Eh
   gradient norm :     0.0738045 Eh/α   predicted     0.0000000E+00 (-100.00%)
   displ. norm   :     0.3171018 α      lambda       -0.1167688E-01
   maximum displ.:     0.1183644 α      in ANC's #20, #12, #56, ...

........................................................................
.............................. CYCLE    2 ..............................
........................................................................

 iter      E             dE          RMSdq      gap      omega  full diag
   1    -44.6482355 -0.446482E+02  0.207E-01    2.21       0.0  T
   2    -44.6482518 -0.163029E-04  0.126E-01    2.21       1.0  T
   3    -44.6481530  0.988840E-04  0.531E-02    2.20       1.0  T
   4    -44.6482654 -0.112400E-03  0.796E-03    2.21       2.1  T
   5    -44.6482671 -0.171962E-05  0.302E-03    2.21       5.6  T
   6    -44.6482671 -0.530576E-07  0.137E-03    2.21      12.3  T
   7    -44.6482672 -0.192248E-07  0.542E-04    2.21      31.2  T
   8    -44.6482672 -0.585238E-08  0.193E-04    2.21      87.7  T
     SCC iter.                  ...        0 min,  0.007 sec
     gradient                   ...        0 min,  0.003 sec
 * total energy  :   -43.8784476 Eh     change       -0.7970760E-02 Eh
   gradient norm :     0.0319959 Eh/α   predicted    -0.6428304E-02 ( -19.35%)
   displ. norm   :     0.2890517 α      lambda       -0.3349910E-02
   maximum displ.:     0.1410157 α      in ANC's #6, #12, #20, ...

........................................................................
.............................. CYCLE    3 ..............................
........................................................................

 iter      E             dE          RMSdq      gap      omega  full diag
   1    -44.6666607 -0.446667E+02  0.143E-01    2.21       0.0  T
   2    -44.6666688 -0.806485E-05  0.863E-02    2.23       1.0  T
   3    -44.6666474  0.214089E-04  0.264E-02    2.22       1.0  T
   4    -44.6666725 -0.250857E-04  0.414E-03    2.22       4.1  T
   5    -44.6666728 -0.378751E-06  0.196E-03    2.22       8.6  T
   6    -44.6666729 -0.345588E-07  0.835E-04    2.22      20.2  T
   7    -44.6666729 -0.120958E-07  0.260E-04    2.22      65.1  T
     SCC iter.                  ...        0 min,  0.006 sec
     gradient                   ...        0 min,  0.003 sec
 * total energy  :   -43.8803956 Eh     change       -0.1948052E-02 Eh
   gradient norm :     0.0085563 Eh/α   predicted    -0.1815892E-02 (  -6.78%)
   displ. norm   :     0.1902302 α      lambda       -0.5600309E-03
   maximum displ.:     0.1334563 α      in ANC's #6, #12, #5, ...

........................................................................
.............................. CYCLE    4 ..............................
........................................................................

 iter      E             dE          RMSdq      gap      omega  full diag
   1    -44.6667048 -0.446667E+02  0.745E-02    2.22       0.0  T
   2    -44.6667056 -0.732018E-06  0.445E-02    2.22       1.0  T
   3    -44.6666961  0.950958E-05  0.159E-02    2.22       1.1  T
   4    -44.6667067 -0.105843E-04  0.159E-03    2.22      10.6  T
   5    -44.6667067 -0.380983E-07  0.841E-04    2.22      20.1  T
   6    -44.6667067 -0.939606E-08  0.255E-04    2.22      66.3  T
     SCC iter.                  ...        0 min,  0.005 sec
     gradient                   ...        0 min,  0.003 sec
 * total energy  :   -43.8807946 Eh     change       -0.3989431E-03 Eh
   gradient norm :     0.0053430 Eh/α   predicted    -0.2901606E-03 ( -27.27%)
   displ. norm   :     0.1999481 α      lambda       -0.3099218E-03
   maximum displ.:     0.1579160 α      in ANC's #6, #12, #5, ...

........................................................................
.............................. CYCLE    5 ..............................
........................................................................

 iter      E             dE          RMSdq      gap      omega  full diag
   1    -44.6654497 -0.446654E+02  0.709E-02    2.22       0.0  T
   2    -44.6654503 -0.592438E-06  0.420E-02    2.22       1.0  T
   3    -44.6654467  0.360677E-05  0.100E-02    2.22       1.7  T
   4    -44.6654507 -0.404315E-05  0.135E-03    2.22      12.5  T
   5    -44.6654508 -0.264622E-07  0.652E-04    2.22      25.9  T
   6    -44.6654508 -0.406201E-08  0.260E-04    2.22      64.9  T
     SCC iter.                  ...        0 min,  0.005 sec
     gradient                   ...        0 min,  0.003 sec
 * total energy  :   -43.8809884 Eh     change       -0.1937833E-03 Eh
   gradient norm :     0.0031676 Eh/α   predicted    -0.1611569E-03 ( -16.84%)
   displ. norm   :     0.0945444 α      lambda       -0.7127665E-04
   maximum displ.:     0.0705624 α      in ANC's #6, #1, #2, ...

........................................................................
.............................. CYCLE    6 ..............................
........................................................................

 iter      E             dE          RMSdq      gap      omega  full diag
   1    -44.6654525 -0.446655E+02  0.301E-02    2.22       0.0  T
   2    -44.6654526 -0.102487E-06  0.177E-02    2.22       1.0  T
   3    -44.6654524  0.249254E-06  0.277E-03    2.22       6.1  T
   4    -44.6654526 -0.286595E-06  0.608E-04    2.22      27.8  T
   5    -44.6654526 -0.911732E-08  0.253E-04    2.22      66.9  T
     SCC iter.                  ...        0 min,  0.004 sec
     gradient                   ...        0 min,  0.003 sec
 * total energy  :   -43.8810439 Eh     change       -0.5557395E-04 Eh
   gradient norm :     0.0020500 Eh/α   predicted    -0.3599514E-04 ( -35.23%)
   displ. norm   :     0.1259122 α      lambda       -0.7107070E-04
   maximum displ.:     0.0789007 α      in ANC's #6, #1, #2, ...

........................................................................
.............................. CYCLE    7 ..............................
........................................................................

 iter      E             dE          RMSdq      gap      omega  full diag
   1    -44.6658078 -0.446658E+02  0.419E-02    2.22       0.0  T
   2    -44.6658080 -0.117426E-06  0.246E-02    2.22       1.0  T
   3    -44.6658078  0.109519E-06  0.211E-03    2.22       8.0  T
   4    -44.6658080 -0.151287E-06  0.571E-04    2.22      29.6  T
   5    -44.6658080 -0.647729E-08  0.293E-04    2.22      57.8  T
     SCC iter.                  ...        0 min,  0.004 sec
     gradient                   ...        0 min,  0.003 sec
 * total energy  :   -43.8810952 Eh     change       -0.5122672E-04 Eh
   gradient norm :     0.0016145 Eh/α   predicted    -0.3609980E-04 ( -29.53%)
   displ. norm   :     0.1783131 α      lambda       -0.3999088E-04
   maximum displ.:     0.0941756 α      in ANC's #6, #1, #2, ...

........................................................................
.............................. CYCLE    8 ..............................
........................................................................

 iter      E             dE          RMSdq      gap      omega  full diag
   1    -44.6661721 -0.446662E+02  0.574E-02    2.23       0.0  T
   2    -44.6661723 -0.198225E-06  0.338E-02    2.23       1.0  T
   3    -44.6661718  0.475335E-06  0.382E-03    2.23       4.4  T
   4    -44.6661724 -0.577798E-06  0.704E-04    2.23      24.0  T
   5    -44.6661724 -0.807970E-08  0.379E-04    2.23      44.6  T
     SCC iter.                  ...        0 min,  0.004 sec
     gradient                   ...        0 min,  0.003 sec
 * total energy  :   -43.8811269 Eh     change       -0.3168517E-04 Eh
   gradient norm :     0.0015902 Eh/α   predicted    -0.2029800E-04 ( -35.94%)
   displ. norm   :     0.0554832 α      lambda       -0.1390606E-04
   maximum displ.:     0.0342670 α      in ANC's #1, #2, #5, ...

........................................................................
.............................. CYCLE    9 ..............................
........................................................................

 iter      E             dE          RMSdq      gap      omega  full diag
   1    -44.6665225 -0.446665E+02  0.125E-02    2.23       0.0  T
   2    -44.6665225 -0.328722E-07  0.736E-03    2.23       2.3  T
   3    -44.6665224  0.103381E-06  0.180E-03    2.23       9.4  T
   4    -44.6665226 -0.118696E-06  0.298E-04    2.23      56.8  T
   5    -44.6665226 -0.194446E-08  0.139E-04    2.23     121.2  T
     SCC iter.                  ...        0 min,  0.004 sec
     gradient                   ...        0 min,  0.003 sec
 * total energy  :   -43.8811441 Eh     change       -0.1725949E-04 Eh
   gradient norm :     0.0007097 Eh/α   predicted    -0.6964385E-05 ( -59.65%)
   displ. norm   :     0.1286870 α      lambda       -0.2618167E-04
   maximum displ.:     0.0743728 α      in ANC's #1, #2, #5, ...

........................................................................
.............................. CYCLE   10 ..............................
........................................................................

 iter      E             dE          RMSdq      gap      omega  full diag
   1    -44.6665192 -0.446665E+02  0.294E-02    2.23       0.0  T
   2    -44.6665193 -0.113513E-06  0.173E-02    2.23       1.0  T
   3    -44.6665191  0.181028E-06  0.232E-03    2.23       7.3  T
   4    -44.6665194 -0.227096E-06  0.468E-04    2.23      36.1  T
   5    -44.6665194 -0.208230E-08  0.258E-04    2.23      65.4  T
     SCC iter.                  ...        0 min,  0.004 sec
     gradient                   ...        0 min,  0.003 sec
 * total energy  :   -43.8811709 Eh     change       -0.2674716E-04 Eh
   gradient norm :     0.0013407 Eh/α   predicted    -0.1318989E-04 ( -50.69%)
   displ. norm   :     0.1367830 α      lambda       -0.1815258E-04
   maximum displ.:     0.0848632 α      in ANC's #1, #2, #3, ...

........................................................................
.............................. CYCLE   11 ..............................
........................................................................

 iter      E             dE          RMSdq      gap      omega  full diag
   1    -44.6661002 -0.446661E+02  0.287E-02    2.23       0.0  T
   2    -44.6661002 -0.815041E-07  0.169E-02    2.23       1.0  T
   3    -44.6661001  0.122680E-06  0.203E-03    2.23       8.3  T
   4    -44.6661003 -0.155523E-06  0.424E-04    2.23      39.8  T
   5    -44.6661003 -0.220445E-08  0.249E-04    2.23      68.0  T
     SCC iter.                  ...        0 min,  0.004 sec
     gradient                   ...        0 min,  0.003 sec
 * total energy  :   -43.8811895 Eh     change       -0.1867473E-04 Eh
   gradient norm :     0.0014482 Eh/α   predicted    -0.9152192E-05 ( -50.99%)
   displ. norm   :     0.1166879 α      lambda       -0.1180593E-04
   maximum displ.:     0.0750304 α      in ANC's #1, #2, #3, ...

........................................................................
.............................. CYCLE   12 ..............................
........................................................................

 iter      E             dE          RMSdq      gap      omega  full diag
   1    -44.6663012 -0.446663E+02  0.248E-02    2.23       0.0  T
   2    -44.6663012 -0.505724E-07  0.146E-02    2.23       1.2  T
   3    -44.6663012  0.855271E-07  0.171E-03    2.23       9.9  T
   4    -44.6663013 -0.107522E-06  0.390E-04    2.23      43.4  T
   5    -44.6663013 -0.292796E-08  0.209E-04    2.23      80.7  T
     SCC iter.                  ...        0 min,  0.004 sec
     gradient                   ...        0 min,  0.003 sec
 * total energy  :   -43.8812032 Eh     change       -0.1368975E-04 Eh
   gradient norm :     0.0007911 Eh/α   predicted    -0.5939973E-05 ( -56.61%)
   displ. norm   :     0.1063371 α      lambda       -0.8569932E-05
   maximum displ.:     0.0699005 α      in ANC's #1, #2, #3, ...

........................................................................
.............................. CYCLE   13 ..............................
........................................................................

 iter      E             dE          RMSdq      gap      omega  full diag
   1    -44.6662225 -0.446662E+02  0.234E-02    2.23       0.0  T
   2    -44.6662226 -0.462343E-07  0.137E-02    2.23       1.2  T
   3    -44.6662225  0.617193E-07  0.144E-03    2.23      11.7  T
   4    -44.6662226 -0.820780E-07  0.314E-04    2.23      53.9  T
   5    -44.6662226 -0.119906E-08  0.182E-04    2.23      92.7  T
     SCC iter.                  ...        0 min,  0.004 sec
     gradient                   ...        0 min,  0.003 sec
 * total energy  :   -43.8812127 Eh     change       -0.9429061E-05 Eh
   gradient norm :     0.0004015 Eh/α   predicted    -0.4306945E-05 ( -54.32%)
   displ. norm   :     0.0789394 α      lambda       -0.5198093E-05
   maximum displ.:     0.0531054 α      in ANC's #1, #3, #2, ...

........................................................................
.............................. CYCLE   14 ..............................
........................................................................

 iter      E             dE          RMSdq      gap      omega  full diag
   1    -44.6663026 -0.446663E+02  0.171E-02    2.23       0.0  T
   2    -44.6663026 -0.220853E-07  0.101E-02    2.23       1.7  T
   3    -44.6663025  0.460372E-07  0.122E-03    2.23      13.9  T
   4    -44.6663026 -0.582027E-07  0.223E-04    2.23      75.9  T
   5    -44.6663026 -0.390692E-09  0.141E-04    2.23     119.6  T
     SCC iter.                  ...        0 min,  0.004 sec
     gradient                   ...        0 min,  0.003 sec
 * total energy  :   -43.8812186 Eh     change       -0.5957430E-05 Eh
   gradient norm :     0.0006429 Eh/α   predicted    -0.2607269E-05 ( -56.24%)
   displ. norm   :     0.0725664 α      lambda       -0.4639042E-05
   maximum displ.:     0.0484535 α      in ANC's #1, #3, #2, ...

........................................................................
.............................. CYCLE   15 ..............................
........................................................................

 iter      E             dE          RMSdq      gap      omega  full diag
   1    -44.6664817 -0.446665E+02  0.150E-02    2.23       0.0  T
   2    -44.6664817 -0.190792E-07  0.878E-03    2.23       1.9  T
   3    -44.6664817  0.310909E-07  0.104E-03    2.23      16.2  T
   4    -44.6664817 -0.408522E-07  0.182E-04    2.23      92.6  T
   5    -44.6664817 -0.500506E-10  0.125E-04    2.23     135.5  T
     SCC iter.                  ...        0 min,  0.004 sec
     gradient                   ...        0 min,  0.003 sec
 * total energy  :   -43.8812244 Eh     change       -0.5832882E-05 Eh
   gradient norm :     0.0005589 Eh/α   predicted    -0.2326200E-05 ( -60.12%)
   displ. norm   :     0.0949283 α      lambda       -0.5563452E-05
   maximum displ.:     0.0616719 α      in ANC's #1, #3, #2, ...

........................................................................
.............................. CYCLE   16 ..............................
........................................................................

 iter      E             dE          RMSdq      gap      omega  full diag
   1    -44.6663247 -0.446663E+02  0.189E-02    2.23       0.0  T
   2    -44.6663248 -0.321510E-07  0.111E-02    2.23       1.5  T
   3    -44.6663246  0.132388E-06  0.202E-03    2.23       8.4  T
   4    -44.6663248 -0.153386E-06  0.319E-04    2.23      53.0  T
   5    -44.6663248 -0.195183E-08  0.177E-04    2.23      95.6  T
     SCC iter.                  ...        0 min,  0.004 sec
     gradient                   ...        0 min,  0.003 sec
 * total energy  :   -43.8812308 Eh     change       -0.6391757E-05 Eh
   gradient norm :     0.0003638 Eh/α   predicted    -0.2796603E-05 ( -56.25%)
   displ. norm   :     0.0808489 α      lambda       -0.3182881E-05
   maximum displ.:     0.0510835 α      in ANC's #1, #3, #5, ...

........................................................................
.............................. CYCLE   17 ..............................
........................................................................

 iter      E             dE          RMSdq      gap      omega  full diag
   1    -44.6663953 -0.446664E+02  0.154E-02    2.23       0.0  T
   2    -44.6663954 -0.235873E-07  0.907E-03    2.23       1.9  T
   3    -44.6663953  0.653852E-07  0.148E-03    2.23      11.4  T
   4    -44.6663954 -0.780799E-07  0.261E-04    2.23      64.9  T
   5    -44.6663954 -0.107709E-08  0.153E-04    2.23     110.4  T
     SCC iter.                  ...        0 min,  0.004 sec
     gradient                   ...        0 min,  0.003 sec
 * total energy  :   -43.8812338 Eh     change       -0.2977328E-05 Eh
   gradient norm :     0.0002136 Eh/α   predicted    -0.1597031E-05 ( -46.36%)
   displ. norm   :     0.0321148 α      lambda       -0.7601793E-06
   maximum displ.:     0.0209465 α      in ANC's #3, #1, #5, ...

   *** GEOMETRY OPTIMIZATION CONVERGED AFTER 17 ITERATIONS ***

------------------------------------------------------------------------
 total energy gain   :        -0.0107570 Eh       -6.7501 kcal/mol
 total RMSD          :         0.2620192 a0        0.1387 Å
 total power (kW/mol):        -1.6613212 (step) -167.3563 (real)
------------------------------------------------------------------------

 ANCopt (total)                0 d,  0 h,  0 min,  0.169 sec
 optimizer setup                ...        0 min,  0.000 sec (  0.040%)
 model hessian                  ...        0 min,  0.011 sec (  6.644%)
 ANC generation                 ...        0 min,  0.001 sec (  0.423%)
 coordinate transformation      ...        0 min,  0.000 sec (  0.062%)
 single point calculation       ...        0 min,  0.154 sec ( 91.393%)
 optimization log               ...        0 min,  0.001 sec (  0.673%)
 hessian update                 ...        0 min,  0.000 sec (  0.088%)
 rational function              ...        0 min,  0.001 sec (  0.454%)

================
 final structure:
================
35
 xtb: 6.7.1 (edcfbbe)
C           -3.12690648806685       -1.53017194253522       -1.10015894514180
C           -2.36738547845020       -1.73167762945081        0.21507582191112
C           -1.85307358228774       -0.44807556112739        0.80094662665383
C           -2.71134779446311        0.47970045132031        1.31399564432419
C           -2.26303253529145        1.64272846218793        1.94753737246207
C           -0.88600711487453        1.83584848130376        2.13915451701019
C            0.01798546108292        0.95226878457757        1.65100154405191
C           -0.37601393277607       -0.21523875672994        0.81625695775220
C            0.17160783025899       -0.04052703239739       -0.65692762675606
C           -0.40818083048746        1.21398306238515       -1.30015376921780
C            1.67460371080695       -0.08162924627020       -0.63524744051026
C            2.31317033121493       -1.31878648645005       -0.64117234802715
C            3.69090723990067       -1.41264905131602       -0.58418548548226
C            4.46110240894534       -0.26397273429786       -0.51851933588007
C            3.83951080888758        0.97230911562166       -0.51158512301365
C            2.45960310187811        1.06342882092752       -0.56731875995533
H           -2.47415692114332       -1.12273871543051       -1.86828295231467
H           -3.52192544655091       -2.48010079760514       -1.45429880692736
H           -3.95749953590312       -0.84316777541833       -0.95894033480411
H           -3.04950552498714       -2.19819451508480        0.93287105509768
H           -1.53936564683470       -2.42433404053708        0.04948425551912
H           -3.77675102603077        0.29630012845043        1.26246104501775
H           -2.97161230692918        2.35821315614359        2.33289893167964
H           -0.55070353293744        2.69345229294975        2.70626611826276
H            1.07599004381081        1.08802568594978        1.81965024171411
H            0.12841146097387       -1.11924059023811        1.19448723561077
H           -0.17427297362544       -0.91157831628957       -1.22280715224159
H            0.02781204451318        1.36700865823241       -2.28556293805444
H           -0.21953909063750        2.09252406768111       -0.68932606060884
H           -1.48570526753369        1.11241160353580       -1.40615914755832
H            1.71979479493573       -2.22187778747354       -0.69550874406848
H            4.16524244316356       -2.38347701008341       -0.59253876830808
H            5.53804194247406       -0.33265889382980       -0.47420795664976
H            4.43275864585846        1.87412741487034       -0.46067513982223
H            1.99644276110289        2.03776669642984       -0.55831053172403

 Bond Distances (Angstroems)
 ---------------------------
C1-C2=1.5321         C1-H17=1.0872        C1-H18=1.0880        C1-H19=1.0871        C2-C1=1.5321         C2-C3=1.5018         
C2-H20=1.0946        C2-H21=1.0922        C3-C2=1.5018         C3-C4=1.3640         C3-C8=1.4954         C4-C3=1.3640         
C4-C5=1.3982         C4-H22=1.0823        C5-C4=1.3982         C5-C6=1.4036         C5-H23=1.0782        C6-C5=1.4036         
C6-C7=1.3551         C6-H24=1.0814        C7-C6=1.3551         C7-C8=1.4883         C7-H25=1.0799        C8-C3=1.4954         
C8-C7=1.4883         C8-C9=1.5814         C8-H26=1.1021        C9-C8=1.5814         C9-C10=1.5244        C9-C11=1.5037        
C9-H27=1.0948        C10-C9=1.5244        C10-H28=1.0884       C10-H29=1.0865       C10-H30=1.0875       C11-C9=1.5037        
C11-C12=1.3923       C11-C16=1.3900       C12-C11=1.3923       C12-C13=1.3821       C12-H31=1.0820       C13-C12=1.3821       
C13-C14=1.3845       C13-H32=1.0805       C14-C13=1.3845       C14-C15=1.3838       C14-H33=1.0800       C15-C14=1.3838       
C15-C16=1.3840       C15-H34=1.0807       C16-C11=1.3900       C16-C15=1.3840       C16-H35=1.0789       H17-C1=1.0872        
H18-C1=1.0880        H19-C1=1.0871        H20-C2=1.0946        H21-C2=1.0922        H22-C4=1.0823        H23-C5=1.0782        
H24-C6=1.0814        H25-C7=1.0799        H26-C8=1.1021        H27-C9=1.0948        H28-C10=1.0884       H29-C10=1.0865       
H30-C10=1.0875       H31-C12=1.0820       H32-C13=1.0805       H33-C14=1.0800       H34-C15=1.0807       H35-C16=1.0789       
 C  H  Rav=1.0859 sigma=0.0063  Rmin=1.0782  Rmax=1.1021    19
 C  C  Rav=1.4391 sigma=0.0696  Rmin=1.3551  Rmax=1.5814    17

 selected bond angles (degree)
 --------------------
H17-C1-C2=110.99               H18-C1-C2=110.16               H18-C1-H17=108.37              H19-C1-C2=110.51               
H19-C1-H17=108.28              H19-C1-H18=108.46              C3-C2-C1=113.09                H20-C2-C1=108.06               
H20-C2-C3=108.78               H21-C2-C1=109.21               H21-C2-C3=109.97               H21-C2-H20=107.55              
C4-C3-C2=120.84                C8-C3-C2=118.38                C8-C3-C4=120.78                C5-C4-C3=122.31                
H22-C4-C3=119.09               H22-C4-C5=118.56               C6-C5-C4=119.40                H23-C5-C4=120.21               
H23-C5-C6=120.31               C7-C6-C5=121.04                H24-C6-C5=119.00               H24-C6-C7=119.94               
C8-C7-C6=122.48                H25-C7-C6=121.02               H25-C7-C8=116.46               C7-C8-C3=112.92                
C9-C8-C3=110.47                C9-C8-C7=110.13                H26-C8-C3=109.14               H26-C8-C7=109.26               
H26-C8-C9=104.59               C10-C9-C8=110.63               C11-C9-C8=109.25               C11-C9-C10=114.13              
H27-C9-C8=106.51               H27-C9-C10=108.45              H27-C9-C11=107.55              H28-C10-C9=110.21              
H29-C10-C9=111.23              H29-C10-H28=109.01             H30-C10-C9=109.95              H30-C10-H28=108.77             
H30-C10-H29=107.60             

 selected dihedral angles (degree)
 ---------------------------------
C3-C2-C1-H17= 62.93           C3-C2-C1-H18=182.96           C3-C2-C1-H19=302.79           H20-C2-C1-H17=183.41          
H20-C2-C1-H18=303.43          H20-C2-C1-H19= 63.26          H21-C2-C1-H17=300.12          H21-C2-C1-H18= 60.15          
H21-C2-C1-H19=179.98          C4-C3-C2-C1= 69.27            C4-C3-C2-H20=309.20           C4-C3-C2-H21=191.66           
C8-C3-C2-C1=248.89            C8-C3-C2-H20=128.82           C8-C3-C2-H21= 11.27           C5-C4-C3-C2=175.58            
C5-C4-C3-C8=355.98            H22-C4-C3-C2=357.82           H22-C4-C3-C8=178.21           C6-C5-C4-C3=356.11            
C6-C5-C4-H22=173.88           H23-C5-C4-C3=179.43           H23-C5-C4-H22=357.20          C7-C6-C5-C4=  3.91            
C7-C6-C5-H23=180.59           H24-C6-C5-C4=185.36           H24-C6-C5-H23=  2.03          C8-C7-C6-C5=  4.06            
C8-C7-C6-H24=182.60           H25-C7-C6-C5=181.54           H25-C7-C6-H24=  0.08          C7-C8-C3-C2=191.23            
C7-C8-C3-C4= 10.85            C9-C8-C3-C2= 67.41            C9-C8-C3-C4=247.02            H26-C8-C3-C2=312.95           
H26-C8-C3-C4=132.56           C3-C8-C7-C6=349.01            C3-C8-C7-H25=171.42           C9-C8-C7-C6=113.02            
C9-C8-C7-H25=295.43           H26-C8-C7-C6=227.36           H26-C8-C7-H25= 49.78          C10-C9-C8-C3= 64.67           
C10-C9-C8-C7=299.26           C10-C9-C8-H26=181.98          C11-C9-C8-C3=191.12           C11-C9-C8-C7= 65.70           
C11-C9-C8-H26=308.43          H27-C9-C8-C3=307.01           H27-C9-C8-C7=181.59           H27-C9-C8-H26= 64.31          
H28-C10-C9-C8=175.90          H28-C10-C9-C11= 52.22         H28-C10-C9-H27=292.38         H29-C10-C9-C8= 54.88          
H29-C10-C9-C11=291.20         H29-C10-C9-H27=171.35         H30-C10-C9-C8=295.79          H30-C10-C9-C11=172.11         
H30-C10-C9-H27= 52.27         
           -------------------------------------------------
          |                Final Singlepoint                |
           -------------------------------------------------

          ...................................................
          :                      SETUP                      :
          :.................................................:
          :  # basis functions                  83          :
          :  # atomic orbitals                  83          :
          :  # shells                           51          :
          :  # electrons                        83          :
          :  max. iterations                   250          :
          :  Hamiltonian                  GFN2-xTB          :
          :  restarted?                      false          :
          :  GBSA solvation                  false          :
          :  PC potential                    false          :
          :  electronic temp.          300.0000000     K    :
          :  accuracy                    1.0000000          :
          :  -> integral cutoff          0.2500000E+02      :
          :  -> integral neglect         0.1000000E-07      :
          :  -> SCF convergence          0.1000000E-05 Eh   :
          :  -> wf. convergence          0.1000000E-03 e    :
          :  Broyden damping             0.4000000          :
          :  net charge                          0          :
          :  unpaired electrons                  0          :
          ...................................................

 iter      E             dE          RMSdq      gap      omega  full diag
   1    -44.6663954 -0.446664E+02  0.542E-05    2.23       0.0  T
   2    -44.6663954 -0.163425E-10  0.363E-05    2.23     465.5  T
   3    -44.6663954 -0.166764E-10  0.229E-05    2.23     737.5  T

   *** convergence criteria satisfied after 3 iterations ***

         #    Occupation            Energy/Eh            Energy/eV
      -------------------------------------------------------------
         1        2.0000           -0.6424060             -17.4808
       ...           ...                  ...                  ...
        36        2.0000           -0.4171424             -11.3510
        37        2.0000           -0.4120818             -11.2133
        38        2.0000           -0.4052303             -11.0269
        39        2.0000           -0.3990173             -10.8578
        40        2.0000           -0.3917577             -10.6603
        41        2.0000           -0.3898452             -10.6082
        42        1.0000           -0.3004154              -8.1747 (HOMO)
        43                         -0.2183149              -5.9407 (LUMO)
        44                         -0.2172692              -5.9122
        45                         -0.2057238              -5.5980
        46                         -0.1239491              -3.3728
        47                         -0.0886924              -2.4134
       ...                                ...                  ...
        83                          0.6689085              18.2019
      -------------------------------------------------------------
                  HL-Gap            0.0821005 Eh            2.2341 eV
             Fermi-level           -0.3022477 Eh           -8.2246 eV

 SCC (total)                   0 d,  0 h,  0 min,  0.007 sec
 SCC setup                      ...        0 min,  0.000 sec (  0.845%)
 Dispersion                     ...        0 min,  0.000 sec (  1.292%)
 classical contributions        ...        0 min,  0.000 sec (  0.319%)
 integral evaluation            ...        0 min,  0.001 sec ( 13.954%)
 iterations                     ...        0 min,  0.003 sec ( 37.140%)
 molecular gradient             ...        0 min,  0.003 sec ( 42.779%)
 printout                       ...        0 min,  0.000 sec (  3.549%)

         :::::::::::::::::::::::::::::::::::::::::::::::::::::
         ::                     SUMMARY                     ::
         :::::::::::::::::::::::::::::::::::::::::::::::::::::
         :: total energy             -43.881233810636 Eh    ::
         :: gradient norm              0.000213391034 Eh/a0 ::
         :: HOMO-LUMO gap              2.234068014755 eV    ::
         ::.................................................::
         :: SCC energy               -44.665980252999 Eh    ::
         :: -> isotropic ES            0.004285113892 Eh    ::
         :: -> anisotropic ES          0.008841523350 Eh    ::
         :: -> anisotropic XC          0.028463810173 Eh    ::
         :: -> dispersion             -0.036451090013 Eh    ::
         :: repulsion energy           0.784746442363 Eh    ::
         :: add. restraining           0.000000000000 Eh    ::
         :: total charge               0.000000000000 e     ::
         :::::::::::::::::::::::::::::::::::::::::::::::::::::

           -------------------------------------------------
          |                Property Printout                |
           -------------------------------------------------

    * Orbital Energies and Occupations

         #    Occupation            Energy/Eh            Energy/eV
      -------------------------------------------------------------
         1        2.0000           -0.6424060             -17.4808
       ...           ...                  ...                  ...
        30        2.0000           -0.4498319             -12.2406
        31        2.0000           -0.4490862             -12.2203
        32        2.0000           -0.4411596             -12.0046
        33        2.0000           -0.4388450             -11.9416
        34        2.0000           -0.4310245             -11.7288
        35        2.0000           -0.4226670             -11.5014
        36        2.0000           -0.4171424             -11.3510
        37        2.0000           -0.4120818             -11.2133
        38        2.0000           -0.4052303             -11.0269
        39        2.0000           -0.3990173             -10.8578
        40        2.0000           -0.3917577             -10.6603
        41        2.0000           -0.3898452             -10.6082
        42        1.0000           -0.3004154              -8.1747 (HOMO)
        43                         -0.2183149              -5.9407 (LUMO)
        44                         -0.2172692              -5.9122
        45                         -0.2057238              -5.5980
        46                         -0.1239491              -3.3728
        47                         -0.0886924              -2.4134
        48                          0.0757178               2.0604
        49                          0.0781243               2.1259
        50                          0.0908464               2.4721
        51                          0.1086539               2.9566
        52                          0.1202604               3.2725
        53                          0.1251301               3.4050
       ...                                ...                  ...
        83                          0.6689085              18.2019
      -------------------------------------------------------------
                  HL-Gap            0.0821005 Eh            2.2341 eV
             Fermi-level           -0.3022477 Eh           -8.2246 eV

     #   Z          covCN         q      C6AA      α(0)
     1   6 C        3.751    -0.097    22.415     6.752
     2   6 C        3.805    -0.056    21.572     6.612
     3   6 C        2.957    -0.000    28.031     8.684
     4   6 C        2.908    -0.038    28.949     8.822
     5   6 C        2.915    -0.044    29.100     8.846
     6   6 C        2.903    -0.032    28.805     8.800
     7   6 C        2.908    -0.041    29.016     8.833
     8   6 C        3.861    -0.014    20.788     6.484
     9   6 C        3.855    -0.015    20.812     6.488
    10   6 C        3.753    -0.100    22.468     6.759
    11   6 C        2.970     0.010    27.797     8.648
    12   6 C        2.927    -0.039    28.971     8.827
    13   6 C        2.918    -0.031    28.774     8.796
    14   6 C        2.920    -0.034    28.841     8.807
    15   6 C        2.919    -0.031    28.780     8.797
    16   6 C        2.924    -0.036    28.896     8.815
    17   1 H        0.925     0.035     2.515     2.480
    18   1 H        0.925     0.034     2.533     2.489
    19   1 H        0.925     0.036     2.500     2.473
    20   1 H        0.924     0.038     2.470     2.458
    21   1 H        0.924     0.031     2.579     2.511
    22   1 H        0.925     0.024     2.668     2.554
    23   1 H        0.926     0.022     2.696     2.567
    24   1 H        0.925     0.023     2.686     2.563
    25   1 H        0.926     0.025     2.665     2.553
    26   1 H        0.923     0.043     2.409     2.427
    27   1 H        0.924     0.039     2.461     2.453
    28   1 H        0.925     0.034     2.527     2.486
    29   1 H        0.925     0.039     2.458     2.452
    30   1 H        0.925     0.038     2.474     2.460
    31   1 H        0.925     0.022     2.697     2.568
    32   1 H        0.926     0.027     2.633     2.537
    33   1 H        0.926     0.027     2.635     2.538
    34   1 H        0.926     0.027     2.630     2.536
    35   1 H        0.926     0.034     2.525     2.485

 Mol. C6AA /au·bohr⁶  :      12656.015685
 Mol. C8AA /au·bohr⁸  :     299439.129771
 Mol. α(0) /au        :        177.361583


Wiberg/Mayer (AO) data.
largest (>0.10) Wiberg bond orders for each atom

 ---------------------------------------------------------------------------
     #   Z sym  total        # sym  WBO       # sym  WBO       # sym  WBO
 ---------------------------------------------------------------------------
     1   6 C    3.996 --     2 C    0.999    19 H    0.987    18 H    0.987
                            17 H    0.986
     2   6 C    3.997 --     3 C    1.021     1 C    0.999    21 H    0.976
                            20 H    0.963
     3   6 C    3.914 --     4 C    1.568     8 C    1.031     2 C    1.021
     4   6 C    3.991 --     3 C    1.568     5 C    1.340    22 H    0.966
     5   6 C    3.878 --     4 C    1.340     6 C    1.306    23 H    0.974
     6   6 C    3.993 --     7 C    1.631     5 C    1.306    24 H    0.968
     7   6 C    3.927 --     6 C    1.631     8 C    1.045    25 H    0.969
     8   6 C    3.994 --     7 C    1.045     3 C    1.031    26 H    0.929
                             9 C    0.883
     9   6 C    3.988 --    10 C    1.011    11 C    1.009    27 H    0.959
                             8 C    0.883
    10   6 C    3.996 --     9 C    1.011    28 H    0.985    30 H    0.983
                            29 H    0.982
    11   6 C    3.988 --    16 C    1.408    12 C    1.402     9 C    1.009
                            14 C    0.108
    12   6 C    3.990 --    13 C    1.452    11 C    1.402    31 H    0.969
                            15 C    0.110
    13   6 C    3.992 --    12 C    1.452    14 C    1.433    32 H    0.971
                            16 C    0.109
    14   6 C    3.988 --    15 C    1.439    13 C    1.433    33 H    0.972
                            11 C    0.108
    15   6 C    3.992 --    16 C    1.444    14 C    1.439    34 H    0.971
                            12 C    0.110
    16   6 C    3.990 --    15 C    1.444    11 C    1.408    35 H    0.967
                            13 C    0.109
    17   1 H    0.999 --     1 C    0.986
    18   1 H    0.998 --     1 C    0.987
    19   1 H    0.999 --     1 C    0.987
    20   1 H    0.998 --     2 C    0.963
    21   1 H    0.999 --     2 C    0.976
    22   1 H    0.999 --     4 C    0.966
    23   1 H    0.999 --     5 C    0.974
    24   1 H    0.999 --     6 C    0.968
    25   1 H    0.999 --     7 C    0.969
    26   1 H    0.997 --     8 C    0.929
    27   1 H    0.998 --     9 C    0.959
    28   1 H    0.999 --    10 C    0.985
    29   1 H    0.998 --    10 C    0.982
    30   1 H    0.998 --    10 C    0.983
    31   1 H    0.999 --    12 C    0.969
    32   1 H    0.999 --    13 C    0.971
    33   1 H    0.999 --    14 C    0.972
    34   1 H    0.999 --    15 C    0.971
    35   1 H    0.999 --    16 C    0.967
 ---------------------------------------------------------------------------

Topologies differ in total number of bonds
Writing topology from bond orders to xtbtopo.mol

molecular dipole:
                 x           y           z       tot (Debye)
 q only:       -0.142      -0.198      -0.211
   full:       -0.117      -0.251      -0.207       0.880
molecular quadrupole (traceless):
                xx          xy          yy          xz          yz          zz
 q only:        0.022       1.653       1.496       1.541      -0.513      -1.519
  q+dip:        3.651       1.467       4.285       1.275       1.891      -7.937
   full:        1.314       1.715       2.487       1.407       0.300      -3.802

           -------------------------------------------------
          |                Geometry Summary                 |
           -------------------------------------------------

      molecular mass/u    :      211.3226486
   center of mass at/Å    :        0.2414078       0.0581861       0.1233305
  moments of inertia/u·Å² :        0.5174532E+03   0.1458999E+04   0.1718060E+04
rotational constants/cm⁻¹ :        0.3257808E-01   0.1155424E-01   0.9812019E-02

 * 31 selected distances

     #   Z          #   Z                                           value/Å
     1   6 C        2   6 C                                       1.5320965 (max)
     3   6 C        4   6 C                                       1.3640464
     4   6 C        5   6 C                                       1.3982118
     5   6 C        6   6 C                                       1.4036423
     6   6 C        7   6 C                                       1.3550680
     9   6 C       10   6 C                                       1.5243657
    11   6 C       12   6 C                                       1.3922503
    12   6 C       13   6 C                                       1.3821060
    13   6 C       14   6 C                                       1.3845470
    14   6 C       15   6 C                                       1.3837693
    11   6 C       16   6 C                                       1.3899628
    15   6 C       16   6 C                                       1.3840356
     1   6 C       17   1 H                                       1.0872436
     1   6 C       18   1 H                                       1.0880350
     1   6 C       19   1 H                                       1.0871074
     2   6 C       20   1 H                                       1.0946031
     2   6 C       21   1 H                                       1.0921587
     4   6 C       22   1 H                                       1.0823011
     5   6 C       23   1 H                                       1.0781964 (min)
     6   6 C       24   1 H                                       1.0814474
     7   6 C       25   1 H                                       1.0799288
     8   6 C       26   1 H                                       1.1021446
     9   6 C       27   1 H                                       1.0947985
    10   6 C       28   1 H                                       1.0883649
    10   6 C       29   1 H                                       1.0865223
    10   6 C       30   1 H                                       1.0874801
    12   6 C       31   1 H                                       1.0819524
    13   6 C       32   1 H                                       1.0805419
    14   6 C       33   1 H                                       1.0800372
    15   6 C       34   1 H                                       1.0806532
    16   6 C       35   1 H                                       1.0788573

 * 2 distinct bonds (by element types)

   Z      Z             #   av. dist./Å        max./Å        min./Å
   1 H    6 C          19     1.0859144     1.1021446     1.0781964
   6 C    6 C          12     1.4078418     1.5320965     1.3550680


optimized geometry written to: xtbopt.xyz


           -------------------------------------------------
          | TOTAL ENERGY              -43.881233810636 Eh   |
          | GRADIENT NORM               0.000213391034 Eh/α |
          | HOMO-LUMO GAP               2.234068014755 eV   |
           -------------------------------------------------

------------------------------------------------------------------------
 * finished run on 2025/09/15 at 14:52:49.676     
------------------------------------------------------------------------
 total:
 * wall-time:     0 d,  0 h,  0 min,  0.220 sec
 *  cpu-time:     0 d,  0 h,  0 min,  0.862 sec
 * ratio c/w:     3.919 speedup
 SCF:
 * wall-time:     0 d,  0 h,  0 min,  0.025 sec
 *  cpu-time:     0 d,  0 h,  0 min,  0.096 sec
 * ratio c/w:     3.844 speedup
 ANC optimizer:
 * wall-time:     0 d,  0 h,  0 min,  0.177 sec
 *  cpu-time:     0 d,  0 h,  0 min,  0.706 sec
 * ratio c/w:     4.000 speedup

