35
 energy: -43.881233810636 gnorm: 0.000213391034 xtb: 6.7.1 (edcfbbe)
C           -3.12690648806685       -1.53017194253522       -1.10015894514180
C           -2.36738547845020       -1.73167762945081        0.21507582191112
C           -1.85307358228774       -0.44807556112739        0.80094662665383
C           -2.71134779446311        0.47970045132031        1.31399564432419
C           -2.26303253529145        1.64272846218793        1.94753737246207
C           -0.88600711487453        1.83584848130376        2.13915451701019
C            0.01798546108292        0.95226878457757        1.65100154405191
C           -0.37601393277607       -0.21523875672994        0.81625695775220
C            0.17160783025899       -0.04052703239739       -0.65692762675606
C           -0.40818083048746        1.21398306238515       -1.30015376921780
C            1.67460371080695       -0.08162924627020       -0.63524744051026
C            2.31317033121493       -1.31878648645005       -0.64117234802715
C            3.69090723990067       -1.41264905131602       -0.58418548548226
C            4.46110240894534       -0.26397273429786       -0.51851933588007
C            3.83951080888758        0.97230911562166       -0.51158512301365
C            2.45960310187811        1.06342882092752       -0.56731875995533
H           -2.47415692114332       -1.12273871543051       -1.86828295231467
H           -3.52192544655091       -2.48010079760514       -1.45429880692736
H           -3.95749953590312       -0.84316777541833       -0.95894033480411
H           -3.04950552498714       -2.19819451508480        0.93287105509768
H           -1.53936564683470       -2.42433404053708        0.04948425551912
H           -3.77675102603077        0.29630012845043        1.26246104501775
H           -2.97161230692918        2.35821315614359        2.33289893167964
H           -0.55070353293744        2.69345229294975        2.70626611826276
H            1.07599004381081        1.08802568594978        1.81965024171411
H            0.12841146097387       -1.11924059023811        1.19448723561077
H           -0.17427297362544       -0.91157831628957       -1.22280715224159
H            0.02781204451318        1.36700865823241       -2.28556293805444
H           -0.21953909063750        2.09252406768111       -0.68932606060884
H           -1.48570526753369        1.11241160353580       -1.40615914755832
H            1.71979479493573       -2.22187778747354       -0.69550874406848
H            4.16524244316356       -2.38347701008341       -0.59253876830808
H            5.53804194247406       -0.33265889382980       -0.47420795664976
H            4.43275864585846        1.87412741487034       -0.46067513982223
H            1.99644276110289        2.03776669642984       -0.55831053172403
