35
 energy: -43.870476825659 gnorm: 0.073804487063 xtb: 6.7.1 (edcfbbe)
C           -3.06780000000000       -1.58080000000000       -1.13610000000000
C           -2.37530000000000       -1.73560000000000        0.21120000000000
C           -1.92570000000000       -0.42060000000000        0.80610000000000
C           -2.81640000000000        0.40900000000000        1.38580000000000
C           -2.35890000000000        1.61670000000000        2.02530000000000
C           -0.96530000000000        1.86780000000000        2.28140000000000
C           -0.05250000000000        1.05870000000000        1.72380000000000
C           -0.41040000000000       -0.12200000000000        0.81920000000000
C            0.17760000000000        0.04310000000000       -0.62260000000000
C           -0.36090000000000        1.28220000000000       -1.35860000000000
C            1.70330000000000       -0.06030000000000       -0.62950000000000
C            2.29760000000000       -1.33420000000000       -0.60690000000000
C            3.68620000000000       -1.47880000000000       -0.59930000000000
C            4.50370000000000       -0.35220000000000       -0.61090000000000
C            3.93240000000000        0.91760000000000       -0.62820000000000
C            2.54280000000000        1.06340000000000       -0.63590000000000
H           -2.40700000000000       -1.12870000000000       -1.88130000000000
H           -3.37590000000000       -2.56140000000000       -1.51340000000000
H           -3.96450000000000       -0.95750000000000       -1.05460000000000
H           -3.06300000000000       -2.23070000000000        0.90890000000000
H           -1.52100000000000       -2.41490000000000        0.10710000000000
H           -3.87910000000000        0.19020000000000        1.41000000000000
H           -3.09480000000000        2.31020000000000        2.41760000000000
H           -0.68440000000000        2.69560000000000        2.92250000000000
H            1.00180000000000        1.22930000000000        1.92380000000000
H            0.06090000000000       -0.99810000000000        1.28900000000000
H           -0.16340000000000       -0.81060000000000       -1.22470000000000
H            0.06310000000000        1.34780000000000       -2.36720000000000
H           -0.12450000000000        2.21580000000000       -0.83850000000000
H           -1.44920000000000        1.23360000000000       -1.46640000000000
H            1.67740000000000       -2.22820000000000       -0.59570000000000
H            4.12860000000000       -2.47130000000000       -0.58390000000000
H            5.58460000000000       -0.46310000000000       -0.60490000000000
H            4.56880000000000        1.79870000000000       -0.63390000000000
H            2.13120000000000        2.06930000000000       -0.63900000000000
35
 energy: -43.878447586120 gnorm: 0.031995888469 xtb: 6.7.1 (edcfbbe)
C           -3.06225753045671       -1.57619208395086       -1.13430242798326
C           -2.35503680019107       -1.72500125312394        0.21154315426699
C           -1.89711173144001       -0.41504526556570        0.80385144489364
C           -2.78449798811972        0.43321273120595        1.38042702517345
C           -2.36344517295151        1.61204347865167        2.03648748738479
C           -0.98643719830851        1.85725590415360        2.24664179621618
C           -0.05933501937066        1.04912440336958        1.69036910067519
C           -0.40622693237451       -0.12307071537812        0.81219787506568
C            0.17952169884673        0.02966831887400       -0.62874728477309
C           -0.35354039336625        1.27810643402271       -1.33649168164042
C            1.69724717876986       -0.05912099742542       -0.61117775691516
C            2.29186485214896       -1.32127893940660       -0.59678830716515
C            3.67030910210127       -1.46704056163232       -0.59470462028616
C            4.48621967174850       -0.34821579041249       -0.60842015067633
C            3.91282757942140        0.91217197516053       -0.62318869199023
C            2.53186307726952        1.05549290780740       -0.62189351345976
H           -2.40587042254233       -1.12538455602430       -1.87678560792410
H           -3.37512291495758       -2.55233914087456       -1.50764958506054
H           -3.94926621690426       -0.94990953053697       -1.04233424910671
H           -3.05245910754447       -2.20457085810886        0.90896621222755
H           -1.50375525601673       -2.40278112287142        0.09718623993175
H           -3.84449826402495        0.21407498526410        1.38467542251086
H           -3.09861245911186        2.29580785758258        2.43531190971445
H           -0.70310013582235        2.68643500101272        2.88029510038343
H            0.99427467025318        1.20973582476379        1.88299901721035
H            0.08449791946392       -1.00585048675055        1.25144061510416
H           -0.16954215723973       -0.83620577807011       -1.20558555993166
H            0.07207826973127        1.34137188512049       -2.33968517469114
H           -0.11907405273117        2.19816102207941       -0.80292926781665
H           -1.43775699088785        1.21952510541124       -1.43220761756388
H            1.67157418311818       -2.20922594784032       -0.59569985243552
H            4.10956956250090       -2.45625699012114       -0.58525610762815
H            5.56310565654291       -0.45851414268979       -0.60737871847541
H            4.54524022572174        1.79048563751408       -0.63443210658603
H            2.11675309672384        2.05333068878968       -0.63653411864910
35
 energy: -43.880395638474 gnorm: 0.008556357384 xtb: 6.7.1 (edcfbbe)
C           -3.05543691619424       -1.56482972734121       -1.13433958025848
C           -2.33987955814985       -1.72044168008412        0.21115258736173
C           -1.87367995888842       -0.41812195323184        0.80146684929405
C           -2.76150742576530        0.44744371002318        1.36685717310702
C           -2.35954773426608        1.60726204576782        2.03373085301644
C           -0.99200654718863        1.85081085798764        2.21851205620723
C           -0.05511791302613        1.03807255147385        1.67264466098876
C           -0.40116652288288       -0.13305191468824        0.82082228913585
C            0.17865293796052        0.01978387484239       -0.62822642175539
C           -0.35581751210106        1.27108132179030       -1.31737536780260
C            1.68679783160180       -0.06209928576689       -0.61037744788077
C            2.28308231195069       -1.31885011305357       -0.59238542440254
C            3.65689063947779       -1.46288243378176       -0.58642602765897
C            4.47046332925272       -0.34419780206615       -0.60014169109287
C            3.89248744916733        0.91181079968624       -0.61261679439666
C            2.51536898407914        1.05179094599056       -0.61517444390590
H           -2.40124476335892       -1.11673087701845       -1.87746979742119
H           -3.37400189032921       -2.53861703677379       -1.50128985050212
H           -3.93460741442646       -0.93402656337281       -1.02924057932565
H           -3.03972698773243       -2.19011833406407        0.91038100100165
H           -1.49039816230507       -2.39601662562974        0.08909196297467
H           -3.82068962640369        0.22332014888308        1.34150662244877
H           -3.09473732743829        2.27781745383655        2.44882241645677
H           -0.69801152299803        2.69597552365316        2.82617764734796
H            0.99852402806664        1.21198166364618        1.83889035525178
H            0.11040390358409       -1.02182040930672        1.23201868845776
H           -0.17416524093712       -0.84928924767113       -1.19414127158009
H            0.06882605652032        1.35093563400474       -2.31704554923165
H           -0.11690105574139        2.17179899911428       -0.75893475476979
H           -1.43850904064882        1.21115534414797       -1.40119021984765
H            1.66107345620927       -2.20325027629799       -0.59232301108400
H            4.09524051426713       -2.45020000235922       -0.58201604005714
H            5.54521752843439       -0.45179415997833       -0.60650634080524
H            4.52012894524523        1.79096589177963       -0.62789810288063
H            2.09399520496488        2.04433167585861       -0.62675644639115
35
 energy: -43.880794581617 gnorm: 0.005343165503 xtb: 6.7.1 (edcfbbe)
C           -3.05225643162931       -1.55637513897334       -1.13391924039584
C           -2.33320330827945       -1.72283912459506        0.20956454879561
C           -1.86427549843250       -0.42596414416214        0.80445598241833
C           -2.75427388046124        0.44727035648263        1.35883318951769
C           -2.35286896523568        1.60481799973814        2.02883126557643
C           -0.98388008377556        1.85716318921802        2.19852161179949
C           -0.04639263433992        1.03757563947601        1.66176976401074
C           -0.39546740473019       -0.14318089148801        0.82681631813246
C            0.17608826910605        0.01053469891035       -0.63122109081634
C           -0.36483127174354        1.26859257585767       -1.30189140401569
C            1.68037729232060       -0.06762064927879       -0.61139434620909
C            2.27921523165837       -1.32362673158528       -0.59142193311012
C            3.65320752363459       -1.46372855160892       -0.58327342509783
C            4.46343410748350       -0.34151284129506       -0.59543097514646
C            3.88197456336950        0.91353200061406       -0.60635161291458
C            2.50465730627394        1.05009188285565       -0.61006528433032
H           -2.39696952809773       -1.10923018794042       -1.87657204198520
H           -3.37814852719007       -2.52665700077964       -1.50272086862928
H           -3.92574384949989       -0.91914738678510       -1.02114630022131
H           -3.03234720237760       -2.19340037998400        0.90747106207179
H           -1.48535084113191       -2.39899574394776        0.08139602498766
H           -3.81328563641250        0.22209396708748        1.31263784137169
H           -3.08791899390138        2.27129728399422        2.45032756881206
H           -0.68169832905074        2.71155476847391        2.79029229341210
H            1.00739450801232        1.22120228438508        1.81404374233631
H            0.12479808051939       -1.03096360751142        1.23047241354566
H           -0.17960406877084       -0.85818908397799       -1.19496938179490
H            0.05714158139676        1.36538370588419       -2.30082295164763
H           -0.12504116571172        2.15983660009606       -0.72792843525182
H           -1.44751752376212        1.20843126553186       -1.38196773520097
H            1.65664450165297       -2.20801251963381       -0.59252560108849
H            4.09344101106274       -2.45003578653701       -0.57551044111487
H            5.53808877043350       -0.44575360127312       -0.59850571876173
H            4.50635473931501        1.79510236614642       -0.61646866422544
H            2.07825765829448        2.04075278660537       -0.62112617483015
35
 energy: -43.880988364926 gnorm: 0.003167619669 xtb: 6.7.1 (edcfbbe)
C           -3.05032216731898       -1.54659400399393       -1.13237847848254
C           -2.32824941067444       -1.72771620138484        0.20801596482668
C           -1.85680442375047       -0.43586349923202        0.80996989517070
C           -2.74779178168389        0.44525799853858        1.35170375461487
C           -2.34298068829428        1.60540433647308        2.01665588985588
C           -0.97267924385070        1.86230061316147        2.17996976300515
C           -0.03663025310352        1.03473195724257        1.65386297185908
C           -0.38846493383471       -0.15587104294322        0.83291935909309
C            0.17342286102564        0.00279639561734       -0.63441230221318
C           -0.37729932739851        1.26603821049995       -1.28698801605646
C            1.67511449567044       -0.07365875409980       -0.61852475106744
C            2.27714396531865       -1.32923176935881       -0.59481057493718
C            3.65204320049215       -1.46434654336735       -0.57863276095360
C            4.45793946177419       -0.33807886456416       -0.58530286861955
C            3.87303299823265        0.91587950847742       -0.59693319482917
C            2.49506720136820        1.04823690130207       -0.60910596241345
H           -2.39283971015974       -1.10110279820837       -1.87448559059666
H           -3.38730692543787       -2.51125295269062       -1.50636458477358
H           -3.91665059123955       -0.90051381570410       -1.01261024063175
H           -3.02546425179804       -2.20381359942524        0.90352597863182
H           -1.48230516075654       -2.40502510361881        0.07153218221401
H           -3.80501651165393        0.21837726867757        1.29626245661179
H           -3.07673120835261        2.27139646598563        2.44116530875013
H           -0.66444021213942        2.72816475049290        2.75218144481558
H            1.01728751303318        1.22840709597545        1.79207738118189
H            0.13705074014661       -1.03998374064067        1.23446496145289
H           -0.18659796721252       -0.86319909537345       -1.19861048839408
H            0.03986965713605        1.38347090150321       -2.28601875316265
H           -0.14030579332279        2.14857936083537       -0.69794797266438
H           -1.46018338062221        1.20227098210774       -1.36326345019824
H            1.65495161115045       -2.21449583368428       -0.59750508746063
H            4.09557719905688       -2.44945866898107       -0.56794299296828
H            5.53305776028486       -0.43838352846183       -0.58436207474555
H            4.49410222371763        1.80025391076618       -0.60011607363352
H            2.06340305419685        2.03702315807637       -0.61779109328165
35
 energy: -43.881043938871 gnorm: 0.002050067383 xtb: 6.7.1 (edcfbbe)
C           -3.05105127154881       -1.54163453876110       -1.13022376066810
C           -2.32702836035267       -1.73088519632258        0.20772416675755
C           -1.85428761808820       -0.44076648414057        0.81318241590332
C           -2.74425041364830        0.44276446306379        1.35141585487703
C           -2.33700303100991        1.60697141446803        2.00899053521893
C           -0.96634295442707        1.86408054232512        2.17145380054806
C           -0.03180645159160        1.03161120273384        1.65147809563767
C           -0.38532313777433       -0.16099070837083        0.83361345207139
C            0.17200293187185        0.00022851861884       -0.63662796490170
C           -0.38389545068507        1.26456614447735       -1.28218482914309
C            1.67355692689513       -0.07561237815344       -0.62221800398281
C            2.27726324686583       -1.33073158138951       -0.59830499006565
C            3.65257047137823       -1.46337964438889       -0.57722750313104
C            4.45640649039320       -0.33559185762018       -0.57882554451011
C            3.87001161677734        0.91765006149376       -0.59181998930048
C            2.49173760326003        1.04776655751340       -0.60945137375148
H           -2.39222105450510       -1.09818276911229       -1.87262789727467
H           -3.39527610622600       -2.50274646632065       -1.50713298391776
H           -3.91303536953369       -0.89019704023482       -1.00739531432316
H           -3.02246451368359       -2.21135028157075        0.90240502876603
H           -1.48167975552739       -2.40812174368088        0.06606974165766
H           -3.80116616704515        0.21732242683674        1.29606344319173
H           -3.06966759347152        2.27683011249528        2.42924677104881
H           -0.65758184762226        2.73231988979023        2.73808085962435
H            1.02192551244521        1.22457588467781        1.78853565743126
H            0.14100684536169       -1.04358433805597        1.23466725145325
H           -0.18968271492957       -0.86442396729336       -1.20167575765294
H            0.03103397769039        1.39029813917049       -2.28092130691895
H           -0.15082968908937        2.14482733265703       -0.68873747734179
H           -1.46667866204579        1.19633369862377       -1.35799244432930
H            1.65618958950966       -2.21692189000725       -0.60409865910268
H            4.09813210792756       -2.44772475148390       -0.56442115652528
H            5.53187315033457       -0.43406931988937       -0.57146003079306
H            4.48969160965283        1.80314181342928       -0.58986824220330
H            2.05787008244147        2.03562675442201       -0.61951184434964
35
 energy: -43.881095165588 gnorm: 0.001614502683 xtb: 6.7.1 (edcfbbe)
C           -3.05387102891464       -1.53604255769624       -1.12636025892000
C           -2.32607427041946       -1.73484809984389        0.20761997950897
C           -1.85146626530540       -0.44623877741649        0.81589595823545
C           -2.73927712864307        0.44043007206719        1.35075255480248
C           -2.32882693434730        1.60972871546324        1.99858142749091
C           -0.95795975295077        1.86358617731841        2.16275924827877
C           -0.02550651868129        1.02438575799164        1.65054530077335
C           -0.38161278007020       -0.16747309560181        0.83276129720109
C            0.17004359600617       -0.00232300137636       -0.63958331191280
C           -0.39150879319195        1.26233302660776       -1.27874042305534
C            1.67194460273006       -0.07667082654813       -0.62747769091714
C            2.27773851899829       -1.33082593390758       -0.60412167931498
C            3.65328078042970       -1.46055947221793       -0.57491040963701
C            4.45477941175613       -0.33130428157346       -0.56765793540229
C            3.86646937855142        0.92086576722647       -0.58385892400739
C            2.48799344831509        1.04811272233056       -0.61049251597122
H           -2.39368454328100       -1.09662071627051       -1.87016901506601
H           -3.40885949634946       -2.49240872583497       -1.50567540214388
H           -3.90926100410316       -0.87674928549729       -0.99894859317580
H           -3.01881917540154       -2.21996999768516        0.90234932434509
H           -1.48129900343202       -2.41145676031656        0.05918440023218
H           -3.79635229246518        0.21693254716889        1.30088261154981
H           -3.05990790326134        2.28731185627103        2.40953276857365
H           -0.64926820175453        2.73533732291407        2.72266052515448
H            1.02849613872823        1.21319019015617        1.78916610040624
H            0.14529123012925       -1.04978578956434        1.23137043251867
H           -0.19247259168316       -0.86581198416056       -1.20581777251491
H            0.02149132101857        1.39641678199678       -2.27681700185495
H           -0.16436865128611        2.14075687800800       -0.68089981613807
H           -1.47399466727198        1.18750154159369       -1.35487246286119
H            1.65877750147243       -2.21843206945872       -0.61556762934730
H            4.10134109297910       -2.44386289878939       -0.56153125339258
H            5.53058012065471       -0.42773715210398       -0.55127786505605
H            4.48451772324573        1.80745344269949       -0.57622098910688
H            2.05164613779809        2.03477862605049       -0.62286097927519
35
 energy: -43.881126850754 gnorm: 0.001590208858 xtb: 6.7.1 (edcfbbe)
C           -3.06117125121974       -1.53003514324982       -1.12007389016118
C           -2.32589246911077       -1.73977972139446        0.20773483618463
C           -1.84729200529020       -0.45336806415594        0.81802060259183
C           -2.73145453125354        0.43851710466133        1.34886689043399
C           -2.31688198495125        1.61398839730728        1.98352895783719
C           -0.94554440881450        1.86178093779631        2.14992576036197
C           -0.01596550266047        1.01228273011065        1.64894792320227
C           -0.37686999079505       -0.17711987676768        0.82999422292764
C            0.16764650140574       -0.00605265139420       -0.64376717577888
C           -0.40059066702558        1.25883837348033       -1.27611019898387
C            1.67004920637161       -0.07662407514928       -0.63371597977924
C            2.27891654210283       -1.32901975898067       -0.61210731959428
C            3.65443810938197       -1.45489165082498       -0.57169747976262
C            4.45275194090349       -0.32369053308931       -0.55155417343405
C            3.86130218520451        0.92686116945474       -0.57211820282175
C            2.48282353960096        1.05011593101547       -0.61053407514659
H           -2.40064560825821       -1.09737125379652       -1.86761983620219
H           -3.43167720542263       -2.48032489627221       -1.49978513731236
H           -3.90670767717329       -0.85966557182554       -0.98476626411897
H           -3.01449212651351       -2.22866679383639        0.90421153583395
H           -1.48226850184550       -2.41558265492915        0.05001418729102
H           -3.79018142916066        0.21941164973634        1.30547109726575
H           -3.04591496273803        2.30220270204167        2.38113736071971
H           -0.63614399878250        2.73544769783441        2.70545631693505
H            1.03885291584796        1.19192888788027        1.79404337638859
H            0.15056267320667       -1.06142410056741        1.22278611761583
H           -0.19416730739168       -0.86889161524277       -1.21144993650007
H            0.01159602038145        1.40188093911589       -2.27297813107423
H           -0.18023644520920        2.13497547157281       -0.67250858264527
H           -1.48255423251062        1.17697370871059       -1.35339067560781
H            1.66331318958127       -2.21868197541816       -0.63245907993390
H            4.10556796588264       -2.43674393214007       -0.55821071216092
H            5.52863347555549       -0.41736963725615       -0.52158894564157
H            4.47693554104334        1.81489491298136       -0.55735851193351
H            2.04326249965611        2.03520329259201       -0.62614487699588
35
 energy: -43.881144110240 gnorm: 0.000709696261 xtb: 6.7.1 (edcfbbe)
C           -3.06658524611570       -1.53116271808187       -1.11797015422637
C           -2.32788715147977       -1.73979467265029        0.20815013747774
C           -1.84699818578811       -0.45317264927300        0.81559215414811
C           -2.72976205462908        0.44106925918080        1.34533263690334
C           -2.31343383991501        1.61515761299322        1.98066627000312
C           -0.94176794094750        1.85853664591299        2.14979046638428
C           -0.01347757896436        1.00716168013094        1.64980475625955
C           -0.37650482580785       -0.17937569751167        0.82781821548874
C            0.16765579207881       -0.00710497689688       -0.64538012647344
C           -0.40045963524189        1.25762309941256       -1.27835968190760
C            1.67013616367322       -0.07548277042881       -0.63432667819621
C            2.28019480175085       -1.32716684374753       -0.61344101133591
C            3.65559466913057       -1.45200666172368       -0.57076106199530
C            4.45283352077443       -0.32015750103264       -0.54794356813316
C            3.86009323951059        0.92984812373914       -0.56870558248755
C            2.48174139527230        1.05201252074848       -0.60892781786360
H           -2.40758403459628       -1.10109425431071       -1.86821849365808
H           -3.43996385427694       -2.48126410460100       -1.49423952515421
H           -3.91005089801499       -0.85912268543695       -0.98081050369323
H           -3.01532441698997       -2.22669647531349        0.90679937370264
H           -1.48519855642040       -2.41618808324182        0.04915481052944
H           -3.78910779040489        0.22324087593946        1.30337772606585
H           -3.04151609479610        2.30470358617058        2.37697577999480
H           -0.63042791746435        2.73184061285021        2.70610845717612
H            1.04177869727146        1.18360759223707        1.79778004024718
H            0.14990017109031       -1.06588064147890        1.21812052443466
H           -0.19262687372437       -0.87035880736405       -1.21356399980712
H            0.01302683258100        1.39975251666881       -2.27478974154858
H           -0.17983117941918        2.13373980287941       -0.67478844120535
H           -1.48223969110050        1.17643165132908       -1.35647976735227
H            1.66562636735489       -2.21737740691044       -0.63602586510381
H            4.10727752837942       -2.43352832738562       -0.55794391925766
H            5.52842576699078       -0.41300072983501       -0.51601377598419
H            4.47488552925624        1.81837262801407       -0.55271171411223
H            2.04157729098139        2.03683779901832       -0.62386991931934
35
 energy: -43.881170857400 gnorm: 0.001340695268 xtb: 6.7.1 (edcfbbe)
C           -3.08015646881620       -1.53573426244546       -1.11359376882500
C           -2.33386712475157       -1.73911220669699        0.20940186908541
C           -1.84764041316435       -0.45187648645888        0.81043077850425
C           -2.72705690745056        0.44754285640236        1.33804575624826
C           -2.30646000241583        1.61872853217270        1.97523048727755
C           -0.93354980625492        1.85301211703821        2.14933156377203
C           -0.00866608316943        0.99747981878672        1.65019062650780
C           -0.37653426772450       -0.18429076256522        0.82309675684452
C            0.16867130443241       -0.00903666830536       -0.64873608345474
C           -0.39861067619608        1.25511475490157       -1.28422570210448
C            1.67123192656861       -0.07320097678491       -0.63504019706756
C            2.28414310800982       -1.32334626080324       -0.61584694898146
C            3.65960888732003       -1.44557561704550       -0.56974311608020
C            4.45431241006198       -0.31201724914376       -0.54247014761725
C            3.85848293106014        0.93668569878566       -0.56150698003131
C            2.48013202600128        1.05617581036992       -0.60426217444888
H           -2.42442920846437       -1.11178187916206       -1.87010144673638
H           -3.45859557400217       -2.48692080839995       -1.48120258002989
H           -3.92023355310692       -0.86044971805600       -0.97414270394539
H           -3.01856977183534       -2.22096212790871        0.91380573370437
H           -1.49346622261629       -2.41765151426996        0.04865912327234
H           -3.78803627676945        0.23530168544176        1.29282026179312
H           -3.03214494958174        2.31018987378755        2.37180886105894
H           -0.61765695331027        2.71936844059811        2.71442451147108
H            1.04711497914904        1.16536726890966        1.80609415135463
H            0.14647886974899       -1.07522947740620        1.20930047747800
H           -0.18864163225312       -0.87305696021558       -1.21797599480328
H            0.01764459892576        1.39445670852332       -2.28020154673186
H           -0.17703028319308        2.13185082860190       -0.68161001130062
H           -1.48022531031566        1.17565260987075       -1.36403175121254
H            1.67152796606727       -2.21471490738934       -0.64214964937416
H            4.11271214179624       -2.42636034684866       -0.55809912838176
H            5.52968813575832       -0.40259451289010       -0.50834861737659
H            4.47129112630839        1.82653981967977       -0.54266266001257
H            2.03853107418233        2.04044591892687       -0.61648974985586
35
 energy: -43.881189532133 gnorm: 0.001448270025 xtb: 6.7.1 (edcfbbe)
C           -3.09385849681905       -1.53914911636238       -1.10898170660854
C           -2.34031199396059       -1.73866561100453        0.21057340526507
C           -1.84842586732610       -0.45051470963083        0.80500620044044
C           -2.72392358582287        0.45534785071318        1.32865178884423
C           -2.29754052529625        1.62286162995274        1.96880463916983
C           -0.92362418619179        1.84576927270885        2.15070847094028
C           -0.00294374788934        0.98562051622965        1.65201787739834
C           -0.37610094138201       -0.19022877776407        0.81896410633743
C            0.16960632971919       -0.01216610687655       -0.65291029215035
C           -0.39889482249509        1.25167098330409       -1.28808780436733
C            1.67223796064442       -0.07250343956608       -0.63595662373350
C            2.28899648905514       -1.32080513569073       -0.61915011083542
C            3.66483650488273       -1.43892433670815       -0.56949700145965
C            4.45598693422686       -0.30292501862380       -0.53627812042751
C            3.85628464683780        0.94398873438021       -0.55266174707578
C            2.47761614895148        1.05938899880679       -0.59872631761547
H           -2.44043573021000       -1.12257826537419       -1.87170312172291
H           -3.47876577288507       -2.49098229025542       -1.46863913248929
H           -3.93019914453128       -0.85934056263003       -0.96849366329238
H           -3.02167428093721       -2.21706615812126        0.92081024960921
H           -1.50210198815715       -2.41938482474187        0.04730609649082
H           -3.78547888632500        0.24820280375497        1.28178546885219
H           -3.01976657706814        2.31899517754070        2.36385996443904
H           -0.60286479818465        2.71041228229902        2.71705594015755