      -----------------------------------------------------------      
     |                   =====================                   |     
     |                           x T B                           |     
     |                   =====================                   |     
     |                         S. Grimme                         |     
     |          Mulliken Center for Theoretical Chemistry        |     
     |                    University of Bonn                     |     
      -----------------------------------------------------------      

   * xtb version 6.7.1 (edcfbbe) compiled by 'conda@c0858423619e' on 2025-09-04

   xtb is free software: you can redistribute it and/or modify it under
   the terms of the GNU Lesser General Public License as published by
   the Free Software Foundation, either version 3 of the License, or
   (at your option) any later version.
   
   xtb is distributed in the hope that it will be useful,
   but WITHOUT ANY WARRANTY; without even the implied warranty of
   MERCHANTABILITY or FITNESS FOR A PARTICULAR PURPOSE.  See the
   GNU Lesser General Public License for more details.
   
   Cite this work as:
   * C. Bannwarth, E. Caldeweyher, S. Ehlert, A. Hansen, P. Pracht,
     J. Seibert, S. Spicher, S. Grimme, WIREs Comput. Mol. Sci., 2020, 11,
     e01493. DOI: 10.1002/wcms.1493
   
   for GFN2-xTB:
   * C. Bannwarth, S. Ehlert and S. Grimme., J. Chem. Theory Comput., 2019,
     15, 1652-1671. DOI: 10.1021/acs.jctc.8b01176
   for GFN1-xTB:
   * S. Grimme, C. Bannwarth, P. Shushkov, J. Chem. Theory Comput., 2017,
     13, 1989-2009. DOI: 10.1021/acs.jctc.7b00118
   for GFN0-xTB:
   * P. Pracht, E. Caldeweyher, S. Ehlert, S. Grimme, ChemRxiv, 2019, preprint.
     DOI: 10.26434/chemrxiv.8326202.v1
   for GFN-FF:
   * S. Spicher and S. Grimme, Angew. Chem. Int. Ed., 2020, 59, 15665-15673.
     DOI: 10.1002/anie.202004239
   
   for ALPB and GBSA implicit solvation:
   * S. Ehlert, M. Stahn, S. Spicher, S. Grimme, J. Chem. Theory Comput.,
     2021, 17, 4250-4261. DOI: 10.1021/acs.jctc.1c00471
   
   for ddCOSMO and CPCM-X implicit solvation:
   * M. Stahn, S. Ehlert, S. Grimme, J. Phys. Chem. A,
     2023, XX, XXXX-XXXX. DOI: 10.1021/acs.jpca.3c04382
   
   for DFT-D4:
   * E. Caldeweyher, C. Bannwarth and S. Grimme, J. Chem. Phys., 2017,
     147, 034112. DOI: 10.1063/1.4993215
   * E. Caldeweyher, S. Ehlert, A. Hansen, H. Neugebauer, S. Spicher,
     C. Bannwarth and S. Grimme, J. Chem. Phys., 2019, 150, 154122.
     DOI: 10.1063/1.5090222
   * E. Caldeweyher, J.-M. Mewes, S. Ehlert and S. Grimme, Phys. Chem. Chem. Phys.
     2020, 22, 8499-8512. DOI: 10.1039/D0CP00502A
   
   for sTDA-xTB:
   * S. Grimme and C. Bannwarth, J. Chem. Phys., 2016, 145, 054103.
     DOI: 10.1063/1.4959605
   
   in the mass-spec context:
   * V. Asgeirsson, C. Bauer and S. Grimme, Chem. Sci., 2017, 8, 4879.
     DOI: 10.1039/c7sc00601b
   * J. Koopman and S. Grimme, ACS Omega 2019, 4, 12, 15120-15133.
     DOI: 10.1021/acsomega.9b02011
   
   for metadynamics refer to:
   * S. Grimme, J. Chem. Theory Comput., 2019, 155, 2847-2862
     DOI: 10.1021/acs.jctc.9b00143
   
   for SPH calculations refer to:
   * S. Spicher and S. Grimme, J. Chem. Theory Comput., 2021, 17, 1701-1714
     DOI: 10.1021/acs.jctc.0c01306
   
   for ONIOM refer to:
   * C. Plett, A. Katbashev, S. Ehlert, S. Grimme, M. Bursch,
     Phys. Chem. Chem. Phys., 2023, 25, 17860-17868. DOI: 10.1039/D3CP02178E
   
   for DIPRO refer to:
   * J. Kohn, N. Gildemeister, S. Grimme, D. Fazzi, A. Hansen,
     J. Chem. Phys., 2023, just accepted.
   
   for PTB refer to:
   * S. Grimme, M. Mueller, A. Hansen, J. Chem. Phys., 2023, 158, 124111.
     DOI: 10.1063/5.0137838
   
   with help from (in alphabetical order)
   P. Atkinson, C. Bannwarth, F. Bohle, G. Brandenburg, E. Caldeweyher
   M. Checinski, S. Dohm, S. Ehlert, S. Ehrlich, I. Gerasimov, C. Hölzer
   A. Katbashev, J. Kohn, J. Koopman, C. Lavigne, S. Lehtola, F. März, M. Müller,
   F. Musil, H. Neugebauer, J. Pisarek, C. Plett, P. Pracht, F. Pultar,
   J. Seibert, P. Shushkov, S. Spicher, M. Stahn, M. Steiner, T. Strunk,
   J. Stückrath, T. Rose, and J. Unsleber
   
 * started run on 2025/09/15 at 14:52:49.689     
   ID    Z sym.   atoms
    1    6 C      1-16
    2    1 H      17-35

           -------------------------------------------------
          |                Calculation Setup                |
           -------------------------------------------------

          program call               : /home/paufv/miniforge3/envs/htvs/bin/xtb gfn_opt.xyz --opt normal --parallel 4 --chrg 0 --uhf 0 --gfn2 --input xtb.inp
          coordinate file            : gfn_opt.xyz
          omp threads                :                     4

########################################################################
[WARNING] Please study the warnings concerning your input carefully
-3- set_opt: the key 'uhf' is not recognized by opt
-2- set_opt: the key 'charge' is not recognized by opt
-1- set_opt: the key 'method' is not recognized by opt
########################################################################

           -------------------------------------------------
          |                 G F N 2 - x T B                 |
           -------------------------------------------------

        Reference                      10.1021/acs.jctc.8b01176
      * Hamiltonian:
        H0-scaling (s, p, d)           1.850000    2.230000    2.230000
        zeta-weighting                 0.500000
      * Dispersion:
        s8                             2.700000
        a1                             0.520000
        a2                             5.000000
        s9                             5.000000
      * Repulsion:
        kExp                           1.500000    1.000000
        rExp                           1.000000
      * Coulomb:
        alpha                          2.000000
        third order                    shell-resolved
        anisotropic                    true
        a3                             3.000000
        a5                             4.000000
        cn-shift                       1.200000
        cn-exp                         4.000000
        max-rad                        5.000000

q/qsh data taken from xtbrestart
CAMM data taken from xtbrestart

          ...................................................
          :                      SETUP                      :
          :.................................................:
          :  # basis functions                  83          :
          :  # atomic orbitals                  83          :
          :  # shells                           51          :
          :  # electrons                        83          :
          :  max. iterations                   250          :
          :  Hamiltonian                  GFN2-xTB          :
          :  restarted?                       true          :
          :  GBSA solvation                  false          :
          :  PC potential                    false          :
          :  electronic temp.          300.0000000     K    :
          :  accuracy                    1.0000000          :
          :  -> integral cutoff          0.2500000E+02      :
          :  -> integral neglect         0.1000000E-07      :
          :  -> SCF convergence          0.1000000E-05 Eh   :
          :  -> wf. convergence          0.1000000E-03 e    :
          :  Broyden damping             0.4000000          :
          :  net charge                          0          :
          :  unpaired electrons                  0          :
          ...................................................

 iter      E             dE          RMSdq      gap      omega  full diag
   1    -44.6026176 -0.446026E+02  0.326E+00    1.98       0.0  T
   2    -44.6065532 -0.393558E-02  0.192E+00    2.09       1.0  T
   3    -44.5933155  0.132376E-01  0.614E-01    2.18       1.0  T
   4    -44.6085126 -0.151970E-01  0.130E-01    2.20       1.0  T
   5    -44.6087816 -0.269024E-03  0.646E-02    2.17       1.0  T
   6    -44.6088037 -0.220626E-04  0.307E-02    2.17       1.0  T
   7    -44.6088188 -0.151484E-04  0.797E-03    2.17       2.1  T
   8    -44.6088200 -0.120569E-05  0.352E-03    2.17       4.8  T
   9    -44.6088202 -0.218963E-06  0.137E-03    2.17      12.3  T
  10    -44.6088203 -0.255074E-07  0.689E-04    2.17      24.5  T
  11    -44.6088203 -0.903253E-08  0.192E-04    2.17      88.1  T

   *** convergence criteria satisfied after 11 iterations ***

         #    Occupation            Energy/Eh            Energy/eV
      -------------------------------------------------------------
         1        2.0000           -0.6356232             -17.2962
       ...           ...                  ...                  ...
        36        2.0000           -0.4125686             -11.2266
        37        2.0000           -0.4096559             -11.1473
        38        2.0000           -0.4043224             -11.0022
        39        2.0000           -0.3954043             -10.7595
        40        2.0000           -0.3929859             -10.6937
        41        2.0000           -0.3893947             -10.5960
        42        1.0000           -0.2987404              -8.1291 (HOMO)
        43                         -0.2188582              -5.9554 (LUMO)
        44                         -0.2185339              -5.9466
        45                         -0.2004925              -5.4557
        46                         -0.1307566              -3.5581
        47                         -0.0938735              -2.5544
       ...                                ...                  ...
        83                          0.6368536              17.3297
      -------------------------------------------------------------
                  HL-Gap            0.0798823 Eh            2.1737 eV
             Fermi-level           -0.3014334 Eh           -8.2024 eV

 SCC (total)                   0 d,  0 h,  0 min,  0.025 sec
 SCC setup                      ...        0 min,  0.000 sec (  0.525%)
 Dispersion                     ...        0 min,  0.000 sec (  1.012%)
 classical contributions        ...        0 min,  0.000 sec (  0.199%)
 integral evaluation            ...        0 min,  0.001 sec (  5.367%)
 iterations                     ...        0 min,  0.019 sec ( 76.533%)
 molecular gradient             ...        0 min,  0.004 sec ( 15.249%)
 printout                       ...        0 min,  0.000 sec (  1.080%)

         :::::::::::::::::::::::::::::::::::::::::::::::::::::
         ::                     SUMMARY                     ::
         :::::::::::::::::::::::::::::::::::::::::::::::::::::
         :: total energy             -43.869139777601 Eh    ::
         :: gradient norm              0.071873792580 Eh/a0 ::
         :: HOMO-LUMO gap              2.173706680010 eV    ::
         ::.................................................::
         :: SCC energy               -44.607987907169 Eh    ::
         :: -> isotropic ES            0.004305066451 Eh    ::
         :: -> anisotropic ES          0.010295593175 Eh    ::
         :: -> anisotropic XC          0.029642281949 Eh    ::
         :: -> dispersion             -0.035901584927 Eh    ::
         :: repulsion energy           0.738848129569 Eh    ::
         :: add. restraining           0.000000000000 Eh    ::
         :: total charge              -0.000000000000 e     ::
         :::::::::::::::::::::::::::::::::::::::::::::::::::::

      ----------------------------------------------------------- 
     |                   =====================                   |
     |                        A N C O P T                        |
     |                   =====================                   |
     |               Approximate Normal Coordinate               |
     |                Rational Function Optimizer                |
      ----------------------------------------------------------- 
      ----------------------------------------------------------- 
     |                   =====================                   |
     |                        A N C O P T                        |
     |                   =====================                   |
     |               Approximate Normal Coordinate               |
     |                Rational Function Optimizer                |
      ----------------------------------------------------------- 

          ...................................................
          :                      SETUP                      :
          :.................................................:
          :   optimization level            normal          :
          :   max. optcycles                   200          :
          :   ANC micro-cycles                  20          :
          :   degrees of freedom                99          :
          :.................................................:
          :   RF solver                   davidson          :
          :   write xtbopt.log                true          :
          :   linear?                        false          :
          :   energy convergence         0.5000000E-05 Eh   :
          :   grad. convergence          0.1000000E-02 Eh/α :
          :   maxmium RF displ.          1.0000000          :
          :   Hlow (freq-cutoff)         0.1000000E-01      :
          :   Hmax (freq-cutoff)         5.0000000          :
          :   S6 in model hess.         20.0000000          :
          ...................................................

generating ANC from exact Hessian ...
Using Lindh-Hessian (1995)
 Shifting diagonal of input Hessian by    9.5722572592872347E-003
 Lowest  eigenvalues of input Hessian
    0.000000    0.000000    0.000000    0.000000    0.000000    0.000000
    0.010000    0.010341    0.010673    0.011318    0.012552    0.012954
    0.013388    0.015635    0.015972    0.017367    0.018000    0.019944
 Highest eigenvalues
    1.695393    1.825543    1.831174    1.903635    1.929326    1.940499


........................................................................
.............................. CYCLE    1 ..............................
........................................................................

 iter      E             dE          RMSdq      gap      omega  full diag
   1    -44.6088203 -0.446088E+02  0.933E-05    2.17       0.0  T
   2    -44.6088203 -0.369269E-10  0.571E-05    2.17     295.8  T
   3    -44.6088203 -0.793676E-11  0.372E-05    2.17     453.9  T
     SCC iter.                  ...        0 min,  0.003 sec
     gradient                   ...        0 min,  0.003 sec
 * total energy  :   -43.8691398 Eh     change       -0.2026255E-09 Eh
   gradient norm :     0.0718737 Eh/α   predicted     0.0000000E+00 (-100.00%)
   displ. norm   :     0.3294822 α      lambda       -0.1168796E-01
   maximum displ.:     0.1453113 α      in ANC's #21, #9, #20, ...

........................................................................
.............................. CYCLE    2 ..............................
........................................................................

 iter      E             dE          RMSdq      gap      omega  full diag
   1    -44.6481841 -0.446482E+02  0.223E-01    2.22       0.0  T
   2    -44.6482006 -0.165389E-04  0.135E-01    2.23       1.0  T
   3    -44.6480970  0.103676E-03  0.546E-02    2.22       1.0  T
   4    -44.6482144 -0.117392E-03  0.773E-03    2.22       2.2  T
   5    -44.6482159 -0.158978E-05  0.290E-03    2.22       5.8  T
   6    -44.6482160 -0.455804E-07  0.136E-03    2.22      12.4  T
   7    -44.6482160 -0.212575E-07  0.525E-04    2.22      32.2  T
   8    -44.6482160 -0.615455E-08  0.183E-04    2.22      92.5  T
     SCC iter.                  ...        0 min,  0.007 sec
     gradient                   ...        0 min,  0.003 sec
 * total energy  :   -43.8771114 Eh     change       -0.7971574E-02 Eh
   gradient norm :     0.0311296 Eh/α   predicted    -0.6481101E-02 ( -18.70%)
   displ. norm   :     0.2960242 α      lambda       -0.3344320E-02
   maximum displ.:     0.1286205 α      in ANC's #9, #21, #2, ...

........................................................................
.............................. CYCLE    3 ..............................
........................................................................

 iter      E             dE          RMSdq      gap      omega  full diag
   1    -44.6669209 -0.446669E+02  0.143E-01    2.22       0.0  T
   2    -44.6669286 -0.763068E-05  0.857E-02    2.23       1.0  T
   3    -44.6669042  0.244110E-04  0.280E-02    2.23       1.0  T
   4    -44.6669324 -0.282552E-04  0.440E-03    2.23       3.8  T
   5    -44.6669329 -0.451650E-06  0.203E-03    2.23       8.3  T
   6    -44.6669329 -0.405202E-07  0.861E-04    2.23      19.6  T
   7    -44.6669329 -0.136932E-07  0.285E-04    2.23      59.4  T
     SCC iter.                  ...        0 min,  0.006 sec
     gradient                   ...        0 min,  0.003 sec
 * total energy  :   -43.8790517 Eh     change       -0.1940366E-02 Eh
   gradient norm :     0.0076649 Eh/α   predicted    -0.1819732E-02 (  -6.22%)
   displ. norm   :     0.1989530 α      lambda       -0.5684760E-03
   maximum displ.:     0.1045348 α      in ANC's #2, #9, #4, ...

........................................................................
.............................. CYCLE    4 ..............................
........................................................................

 iter      E             dE          RMSdq      gap      omega  full diag
   1    -44.6669613 -0.446670E+02  0.735E-02    2.22       0.0  T
   2    -44.6669619 -0.621214E-06  0.438E-02    2.22       1.0  T
   3    -44.6669506  0.113014E-04  0.165E-02    2.22       1.0  T
   4    -44.6669631 -0.125139E-04  0.144E-03    2.22      11.7  T
   5    -44.6669632 -0.320336E-07  0.762E-04    2.22      22.2  T
   6    -44.6669632 -0.961744E-08  0.239E-04    2.22      70.7  T
     SCC iter.                  ...        0 min,  0.005 sec
     gradient                   ...        0 min,  0.003 sec
 * total energy  :   -43.8794621 Eh     change       -0.4103737E-03 Eh
   gradient norm :     0.0043816 Eh/α   predicted    -0.2955024E-03 ( -27.99%)
   displ. norm   :     0.2288123 α      lambda       -0.3494798E-03
   maximum displ.:     0.1482635 α      in ANC's #2, #9, #4, ...

........................................................................
.............................. CYCLE    5 ..............................
........................................................................

 iter      E             dE          RMSdq      gap      omega  full diag
   1    -44.6657792 -0.446658E+02  0.708E-02    2.22       0.0  T
   2    -44.6657797 -0.528866E-06  0.418E-02    2.22       1.0  T
   3    -44.6657751  0.465620E-05  0.108E-02    2.22       1.6  T
   4    -44.6657803 -0.519212E-05  0.125E-03    2.22      13.5  T
   5    -44.6657803 -0.187662E-07  0.660E-04    2.22      25.6  T
   6    -44.6657803 -0.606893E-08  0.263E-04    2.22      64.2  T
     SCC iter.                  ...        0 min,  0.005 sec
     gradient                   ...        0 min,  0.003 sec
 * total energy  :   -43.8796944 Eh     change       -0.2323539E-03 Eh
   gradient norm :     0.0033079 Eh/α   predicted    -0.1838886E-03 ( -20.86%)
   displ. norm   :     0.1488664 α      lambda       -0.1254861E-03
   maximum displ.:     0.1118397 α      in ANC's #2, #4, #9, ...

........................................................................
.............................. CYCLE    6 ..............................
........................................................................

 iter      E             dE          RMSdq      gap      omega  full diag
   1    -44.6656029 -0.446656E+02  0.401E-02    2.22       0.0  T
   2    -44.6656031 -0.147163E-06  0.236E-02    2.22       1.0  T
   3    -44.6656022  0.866182E-06  0.486E-03    2.22       3.5  T
   4    -44.6656032 -0.976689E-06  0.664E-04    2.22      25.5  T
   5    -44.6656032 -0.551406E-08  0.358E-04    2.22      47.2  T
     SCC iter.                  ...        0 min,  0.005 sec
     gradient                   ...        0 min,  0.003 sec
 * total energy  :   -43.8797956 Eh     change       -0.1011626E-03 Eh
   gradient norm :     0.0029997 Eh/α   predicted    -0.6413368E-04 ( -36.60%)
   displ. norm   :     0.1419132 α      lambda       -0.1123939E-03
   maximum displ.:     0.1075184 α      in ANC's #2, #4, #3, ...

........................................................................
.............................. CYCLE    7 ..............................
........................................................................

 iter      E             dE          RMSdq      gap      omega  full diag
   1    -44.6658961 -0.446659E+02  0.456E-02    2.22       0.0  T
   2    -44.6658962 -0.110968E-06  0.268E-02    2.22       1.0  T
   3    -44.6658956  0.608017E-06  0.415E-03    2.22       4.1  T
   4    -44.6658963 -0.693732E-06  0.574E-04    2.22      29.5  T
   5    -44.6658963 -0.298039E-08  0.321E-04    2.22      52.6  T
     SCC iter.                  ...        0 min,  0.004 sec
     gradient                   ...        0 min,  0.003 sec
 * total energy  :   -43.8798903 Eh     change       -0.9468472E-04 Eh
   gradient norm :     0.0022438 Eh/α   predicted    -0.5732913E-04 ( -39.45%)
   displ. norm   :     0.1651381 α      lambda       -0.1086845E-03
   maximum displ.:     0.1235092 α      in ANC's #2, #4, #3, ...

........................................................................
.............................. CYCLE    8 ..............................
........................................................................

 iter      E             dE          RMSdq      gap      omega  full diag
   1    -44.6662232 -0.446662E+02  0.590E-02    2.23       0.0  T
   2    -44.6662233 -0.154866E-06  0.346E-02    2.23       1.0  T
   3    -44.6662230  0.338165E-06  0.319E-03    2.23       5.3  T
   4    -44.6662234 -0.421422E-06  0.647E-04    2.23      26.1  T
   5    -44.6662234 -0.379671E-08  0.358E-04    2.23      47.3  T
     SCC iter.                  ...        0 min,  0.004 sec
     gradient                   ...        0 min,  0.003 sec
 * total energy  :   -43.8799791 Eh     change       -0.8885612E-04 Eh
   gradient norm :     0.0017132 Eh/α   predicted    -0.5582760E-04 ( -37.17%)
   displ. norm   :     0.2438603 α      lambda       -0.8067729E-04
   maximum displ.:     0.1830114 α      in ANC's #2, #4, #3, ...

........................................................................
.............................. CYCLE    9 ..............................
........................................................................

 iter      E             dE          RMSdq      gap      omega  full diag
   1    -44.6663766 -0.446664E+02  0.907E-02    2.23       0.0  T
   2    -44.6663770 -0.374150E-06  0.532E-02    2.23       1.0  T
   3    -44.6663767  0.264597E-06  0.307E-03    2.23       5.5  T
   4    -44.6663772 -0.419927E-06  0.926E-04    2.23      18.3  T
   5    -44.6663772 -0.876715E-08  0.554E-04    2.23      30.5  T
     SCC iter.                  ...        0 min,  0.004 sec
     gradient                   ...        0 min,  0.003 sec
 * total energy  :   -43.8800659 Eh     change       -0.8671324E-04 Eh
   gradient norm :     0.0019856 Eh/α   predicted    -0.4140882E-04 ( -52.25%)
   displ. norm   :     0.1338863 α      lambda       -0.3582389E-04
   maximum displ.:     0.1054641 α      in ANC's #2, #4, #3, ...

........................................................................
.............................. CYCLE   10 ..............................
........................................................................

 iter      E             dE          RMSdq      gap      omega  full diag
   1    -44.6667825 -0.446668E+02  0.495E-02    2.23       0.0  T
   2    -44.6667826 -0.125129E-06  0.290E-02    2.23       1.0  T
   3    -44.6667825  0.137953E-06  0.228E-03    2.23       7.4  T
   4    -44.6667827 -0.192313E-06  0.562E-04    2.23      30.1  T
   5    -44.6667827 -0.302442E-08  0.300E-04    2.23      56.3  T
     SCC iter.                  ...        0 min,  0.004 sec
     gradient                   ...        0 min,  0.003 sec
 * total energy  :   -43.8801104 Eh     change       -0.4455563E-04 Eh
   gradient norm :     0.0014860 Eh/α   predicted    -0.1807173E-04 ( -59.44%)
   displ. norm   :     0.1274531 α      lambda       -0.3345146E-04
   maximum displ.:     0.0992473 α      in ANC's #2, #5, #3, ...

........................................................................
.............................. CYCLE   11 ..............................
........................................................................

 iter      E             dE          RMSdq      gap      omega  full diag
   1    -44.6668268 -0.446668E+02  0.456E-02    2.23       0.0  T
   2    -44.6668270 -0.132392E-06  0.267E-02    2.23       1.0  T
   3    -44.6668267  0.304149E-06  0.315E-03    2.23       5.4  T
   4    -44.6668270 -0.366509E-06  0.620E-04    2.23      27.3  T
   5    -44.6668270 -0.664446E-08  0.289E-04    2.23      58.5  T
     SCC iter.                  ...        0 min,  0.004 sec
     gradient                   ...        0 min,  0.003 sec
 * total energy  :   -43.8801507 Eh     change       -0.4031627E-04 Eh
   gradient norm :     0.0009591 Eh/α   predicted    -0.1684812E-04 ( -58.21%)
   displ. norm   :     0.1421290 α      lambda       -0.3180754E-04
   maximum displ.:     0.1077824 α      in ANC's #2, #5, #6, ...

........................................................................
.............................. CYCLE   12 ..............................
........................................................................

 iter      E             dE          RMSdq      gap      omega  full diag
   1    -44.6668048 -0.446668E+02  0.480E-02    2.24       0.0  T
   2    -44.6668049 -0.177265E-06  0.282E-02    2.24       1.0  T
   3    -44.6668044  0.491645E-06  0.388E-03    2.24       4.4  T
   4    -44.6668050 -0.578111E-06  0.777E-04    2.24      21.8  T
   5    -44.6668050 -0.111803E-07  0.343E-04    2.24      49.3  T
     SCC iter.                  ...        0 min,  0.004 sec
     gradient                   ...        0 min,  0.003 sec
 * total energy  :   -43.8801867 Eh     change       -0.3594980E-04 Eh
   gradient norm :     0.0011987 Eh/α   predicted    -0.1604972E-04 ( -55.36%)
   displ. norm   :     0.1415313 α      lambda       -0.2839861E-04
   maximum displ.:     0.1047683 α      in ANC's #2, #5, #6, ...

........................................................................
.............................. CYCLE   13 ..............................
........................................................................

 iter      E             dE          RMSdq      gap      omega  full diag
   1    -44.6667891 -0.446668E+02  0.447E-02    2.24       0.0  T
   2    -44.6667893 -0.176330E-06  0.263E-02    2.24       1.0  T
   3    -44.6667886  0.730174E-06  0.468E-03    2.24       3.6  T
   4    -44.6667894 -0.835415E-06  0.714E-04    2.24      23.7  T
   5    -44.6667894 -0.100392E-07  0.323E-04    2.24      52.3  T
     SCC iter.                  ...        0 min,  0.004 sec
     gradient                   ...        0 min,  0.003 sec
 * total energy  :   -43.8802218 Eh     change       -0.3511820E-04 Eh
   gradient norm :     0.0013695 Eh/α   predicted    -0.1432674E-04 ( -59.20%)
   displ. norm   :     0.1496904 α      lambda       -0.2919593E-04
   maximum displ.:     0.1080646 α      in ANC's #2, #6, #4, ...

........................................................................
.............................. CYCLE   14 ..............................
........................................................................

 iter      E             dE          RMSdq      gap      omega  full diag
   1    -44.6667298 -0.446667E+02  0.464E-02    2.24       0.0  T
   2    -44.6667300 -0.197135E-06  0.273E-02    2.24       1.0  T
   3    -44.6667289  0.104483E-05  0.548E-03    2.24       3.1  T
   4    -44.6667301 -0.117882E-05  0.761E-04    2.24      22.2  T
   5    -44.6667301 -0.115719E-07  0.360E-04    2.24      47.0  T
   6    -44.6667301 -0.145933E-08  0.154E-04    2.24     109.6  T
     SCC iter.                  ...        0 min,  0.005 sec
     gradient                   ...        0 min,  0.003 sec
 * total energy  :   -43.8802605 Eh     change       -0.3864875E-04 Eh
   gradient norm :     0.0012226 Eh/α   predicted    -0.1474383E-04 ( -61.85%)
   displ. norm   :     0.1786513 α      lambda       -0.3476664E-04
   maximum displ.:     0.1261324 α      in ANC's #2, #4, #6, ...

........................................................................
.............................. CYCLE   15 ..............................
........................................................................

 iter      E             dE          RMSdq      gap      omega  full diag
   1    -44.6668889 -0.446669E+02  0.549E-02    2.24       0.0  T
   2    -44.6668891 -0.273157E-06  0.323E-02    2.24       1.0  T
   3    -44.6668880  0.116021E-05  0.585E-03    2.24       2.9  T
   4    -44.6668893 -0.132737E-05  0.887E-04    2.24      19.0  T
   5    -44.6668893 -0.130918E-07  0.448E-04    2.24      37.7  T
   6    -44.6668893 -0.268881E-08  0.174E-04    2.24      97.1  T
     SCC iter.                  ...        0 min,  0.005 sec
     gradient                   ...        0 min,  0.003 sec
 * total energy  :   -43.8803032 Eh     change       -0.4279706E-04 Eh
   gradient norm :     0.0009718 Eh/α   predicted    -0.1763029E-04 ( -58.80%)
   displ. norm   :     0.1779089 α      lambda       -0.2951862E-04
   maximum displ.:     0.1270972 α      in ANC's #2, #4, #6, ...

........................................................................
.............................. CYCLE   16 ..............................
........................................................................

 iter      E             dE          RMSdq      gap      omega  full diag
   1    -44.6668932 -0.446669E+02  0.544E-02    2.24       0.0  T
   2    -44.6668934 -0.286689E-06  0.320E-02    2.25       1.0  T
   3    -44.6668919  0.152728E-05  0.668E-03    2.25       2.5  T
   4    -44.6668936 -0.171942E-05  0.897E-04    2.25      18.8  T
   5    -44.6668936 -0.134036E-07  0.461E-04    2.25      36.7  T
   6    -44.6668937 -0.320797E-08  0.190E-04    2.25      88.8  T
     SCC iter.                  ...        0 min,  0.005 sec
     gradient                   ...        0 min,  0.003 sec
 * total energy  :   -43.8803375 Eh     change       -0.3426444E-04 Eh
   gradient norm :     0.0007275 Eh/α   predicted    -0.1496841E-04 ( -56.32%)
   displ. norm   :     0.1307254 α      lambda       -0.1858124E-04
   maximum displ.:     0.0955315 α      in ANC's #2, #4, #6, ...

........................................................................
.............................. CYCLE   17 ..............................
........................................................................

 iter      E             dE          RMSdq      gap      omega  full diag
   1    -44.6670621 -0.446671E+02  0.390E-02    2.25       0.0  T
   2    -44.6670622 -0.127403E-06  0.229E-02    2.25       1.0  T
   3    -44.6670617  0.436683E-06  0.366E-03    2.25       4.6  T
   4    -44.6670623 -0.508585E-06  0.589E-04    2.25      28.7  T
   5    -44.6670623 -0.405105E-08  0.319E-04    2.25      52.9  T
     SCC iter.                  ...        0 min,  0.004 sec
     gradient                   ...        0 min,  0.003 sec
 * total energy  :   -43.8803618 Eh     change       -0.2430789E-04 Eh
   gradient norm :     0.0006942 Eh/α   predicted    -0.9362166E-05 ( -61.49%)
   displ. norm   :     0.1282401 α      lambda       -0.1955566E-04
   maximum displ.:     0.0914411 α      in ANC's #2, #4, #3, ...

........................................................................
.............................. CYCLE   18 ..............................
........................................................................

 iter      E             dE          RMSdq      gap      omega  full diag
   1    -44.6673070 -0.446673E+02  0.373E-02    2.25       0.0  T
   2    -44.6673071 -0.110154E-06  0.219E-02    2.25       1.0  T
   3    -44.6673068  0.301425E-06  0.310E-03    2.25       5.5  T
   4    -44.6673072 -0.358414E-06  0.532E-04    2.25      31.7  T
   5    -44.6673072 -0.252875E-08  0.287E-04    2.25      58.8  T
     SCC iter.                  ...        0 min,  0.004 sec
     gradient                   ...        0 min,  0.003 sec
 * total energy  :   -43.8803893 Eh     change       -0.2745095E-04 Eh
   gradient norm :     0.0008892 Eh/α   predicted    -0.9854057E-05 ( -64.10%)
   displ. norm   :     0.1957038 α      lambda       -0.3284587E-04
   maximum displ.:     0.1313419 α      in ANC's #2, #4, #1, ...

........................................................................
.............................. CYCLE   19 ..............................
........................................................................

 iter      E             dE          RMSdq      gap      omega  full diag
   1    -44.6672569 -0.446673E+02  0.552E-02    2.25       0.0  T
   2    -44.6672571 -0.223935E-06  0.325E-02    2.25       1.0  T
   3    -44.6672567  0.450226E-06  0.378E-03    2.25       4.5  T
   4    -44.6672572 -0.552259E-06  0.775E-04    2.25      21.8  T
   5    -44.6672572 -0.680655E-08  0.384E-04    2.25      44.1  T
     SCC iter.                  ...        0 min,  0.004 sec
     gradient                   ...        0 min,  0.003 sec
 * total energy  :   -43.8804352 Eh     change       -0.4587984E-04 Eh
   gradient norm :     0.0010559 Eh/α   predicted    -0.1670350E-04 ( -63.59%)
   displ. norm   :     0.3635295 α      lambda       -0.6127261E-04
   maximum displ.:     0.2356511 α      in ANC's #2, #4, #1, ...

........................................................................
.............................. CYCLE   20 ..............................
........................................................................

 iter      E             dE          RMSdq      gap      omega  full diag
   1    -44.6662827 -0.446663E+02  0.986E-02    2.25       0.0  T
   2    -44.6662835 -0.714226E-06  0.580E-02    2.26       1.0  T
   3    -44.6662827  0.778673E-06  0.534E-03    2.26       3.2  T
   4    -44.6662837 -0.105135E-05  0.140E-03    2.26      12.1  T
   5    -44.6662837 -0.225072E-07  0.686E-04    2.26      24.6  T
   6    -44.6662838 -0.528559E-08  0.303E-04    2.26      55.7  T
     SCC iter.                  ...        0 min,  0.005 sec
     gradient                   ...        0 min,  0.003 sec
 * total energy  :   -43.8805169 Eh     change       -0.8174115E-04 Eh
   gradient norm :     0.0019533 Eh/α   predicted    -0.3243722E-04 ( -60.32%)
   displ. norm   :     0.6098906 α      lambda       -0.9704364E-04
   maximum displ.:     0.3951300 α      in ANC's #2, #4, #1, ...
 * RMSD in coord.:     0.4844244 α      energy gain  -0.1137711E-01 Eh

generating ANC from exact Hessian ...
Using Lindh-Hessian (1995)
 Shifting diagonal of input Hessian by    9.5117391254808791E-003
 Lowest  eigenvalues of input Hessian
    0.000000    0.000000    0.000000    0.000000    0.000000    0.000000
    0.010000    0.010454    0.010837    0.011515    0.012876    0.013334
    0.013876    0.015800    0.016689    0.017892    0.018571    0.020563
 Highest eigenvalues
    1.745217    1.895126    1.929558    1.966014    1.997053    2.024744


........................................................................
.............................. CYCLE   21 ..............................
........................................................................

 iter      E             dE          RMSdq      gap      omega  full diag
   1    -44.6635328 -0.446635E+02  0.159E-01    2.26       0.0  T
   2    -44.6635350 -0.215828E-05  0.936E-02    2.26       1.0  T
   3    -44.6635328  0.211789E-05  0.871E-03    2.27       1.9  T
   4    -44.6635357 -0.282504E-05  0.249E-03    2.27       6.8  T
   5    -44.6635358 -0.977287E-07  0.115E-03    2.27      14.6  T
   6    -44.6635358 -0.131544E-07  0.544E-04    2.27      31.1  T
   7    -44.6635358 -0.433810E-08  0.124E-04    2.27     136.2  T
     SCC iter.                  ...        0 min,  0.006 sec
     gradient                   ...        0 min,  0.003 sec
 * total energy  :   -43.8806158 Eh     change       -0.9893071E-04 Eh
   gradient norm :     0.0055307 Eh/α   predicted     0.0000000E+00 (-100.00%)
   displ. norm   :     0.0480786 α      lambda       -0.1018666E-03
   maximum displ.:     0.0247429 α      in ANC's #3, #1, #9, ...

........................................................................
.............................. CYCLE   22 ..............................
........................................................................

 iter      E             dE          RMSdq      gap      omega  full diag
   1    -44.6670712 -0.446671E+02  0.187E-02    2.27       0.0  T
   2    -44.6670715 -0.289310E-06  0.108E-02    2.27       1.6  T
   3    -44.6670715  0.688896E-07  0.230E-03    2.27       7.4  T
   4    -44.6670715 -0.918747E-07  0.924E-04    2.27      18.3  T
   5    -44.6670716 -0.204836E-07  0.369E-04    2.27      45.9  T
     SCC iter.                  ...        0 min,  0.004 sec
     gradient                   ...        0 min,  0.003 sec
 * total energy  :   -43.8806849 Eh     change       -0.6903818E-04 Eh
   gradient norm :     0.0015761 Eh/α   predicted    -0.5141392E-04 ( -25.53%)
   displ. norm   :     0.1121308 α      lambda       -0.4586763E-04
   maximum displ.:     0.0635886 α      in ANC's #3, #1, #2, ...

........................................................................
.............................. CYCLE   23 ..............................
........................................................................

 iter      E             dE          RMSdq      gap      omega  full diag
   1    -44.6697817 -0.446698E+02  0.214E-02    2.28       0.0  T
   2    -44.6697818 -0.157611E-06  0.126E-02    2.28       1.3  T
   3    -44.6697817  0.112273E-06  0.220E-03    2.28       7.7  T
   4    -44.6697818 -0.135779E-06  0.779E-04    2.28      21.7  T
   5    -44.6697819 -0.145996E-07  0.338E-04    2.28      50.0  T
     SCC iter.                  ...        0 min,  0.004 sec
     gradient                   ...        0 min,  0.003 sec
 * total energy  :   -43.8807300 Eh     change       -0.4515556E-04 Eh
   gradient norm :     0.0024611 Eh/α   predicted    -0.2307101E-04 ( -48.91%)
   displ. norm   :     0.1027139 α      lambda       -0.4364393E-04
   maximum displ.:     0.0558775 α      in ANC's #3, #1, #2, ...

........................................................................
.............................. CYCLE   24 ..............................
........................................................................

 iter      E             dE          RMSdq      gap      omega  full diag
   1    -44.6698158 -0.446698E+02  0.167E-02    2.28       0.0  T
   2    -44.6698159 -0.230295E-07  0.988E-03    2.28       1.7  T
   3    -44.6698158  0.107651E-07  0.731E-04    2.28      23.1  T
   4    -44.6698159 -0.186279E-07  0.269E-04    2.28      62.8  T
     SCC iter.                  ...        0 min,  0.003 sec
     gradient                   ...        0 min,  0.003 sec
 * total energy  :   -43.8807717 Eh     change       -0.4166771E-04 Eh
   gradient norm :     0.0026696 Eh/α   predicted    -0.2205528E-04 ( -47.07%)
   displ. norm   :     0.3478667 α      lambda       -0.1477441E-03
   maximum displ.:     0.1809586 α      in ANC's #3, #1, #4, ...

........................................................................
.............................. CYCLE   25 ..............................
........................................................................

 iter      E             dE          RMSdq      gap      omega  full diag
   1    -44.6681447 -0.446681E+02  0.563E-02    2.28       0.0  T
   2    -44.6681451 -0.435610E-06  0.333E-02    2.28       1.0  T
   3    -44.6681449  0.173763E-06  0.286E-03    2.28       5.9  T
   4    -44.6681452 -0.255144E-06  0.118E-03    2.28      14.3  T
   5    -44.6681452 -0.271223E-07  0.592E-04    2.28      28.6  T
   6    -44.6681452 -0.151751E-08  0.314E-04    2.28      53.9  T
     SCC iter.                  ...        0 min,  0.005 sec
     gradient                   ...        0 min,  0.003 sec
 * total energy  :   -43.8808960 Eh     change       -0.1243178E-03 Eh
   gradient norm :     0.0021385 Eh/α   predicted    -0.8281537E-04 ( -33.38%)
   displ. norm   :     0.4514762 α      lambda       -0.1412942E-03
   maximum displ.:     0.2336865 α      in ANC's #3, #1, #4, ...

........................................................................
.............................. CYCLE   26 ..............................
........................................................................

 iter      E             dE          RMSdq      gap      omega  full diag
   1    -44.6646758 -0.446647E+02  0.710E-02    2.28       0.0  T
   2    -44.6646768 -0.103424E-05  0.419E-02    2.29       1.0  T
   3    -44.6646765  0.334742E-06  0.412E-03    2.29       4.1  T
   4    -44.6646770 -0.482766E-06  0.177E-03    2.29       9.6  T
   5    -44.6646771 -0.649142E-07  0.795E-04    2.29      21.3  T
   6    -44.6646771 -0.130850E-08  0.428E-04    2.29      39.5  T
     SCC iter.                  ...        0 min,  0.005 sec
     gradient                   ...        0 min,  0.003 sec
 * total energy  :   -43.8809629 Eh     change       -0.6691544E-04 Eh
   gradient norm :     0.0059919 Eh/α   predicted    -0.8505354E-04 (  27.11%)
   displ. norm   :     0.0376131 α      lambda       -0.7356990E-04
   maximum displ.:     0.0216899 α      in ANC's #9, #1, #2, ...

........................................................................
.............................. CYCLE   27 ..............................
........................................................................

 iter      E             dE          RMSdq      gap      omega  full diag
   1    -44.6658089 -0.446658E+02  0.126E-02    2.29       0.0  T
   2    -44.6658091 -0.216977E-06  0.711E-03    2.29       2.4  T
   3    -44.6658091  0.200913E-07  0.172E-03    2.29       9.8  T
   4    -44.6658091 -0.224449E-07  0.749E-04    2.29      22.6  T
   5    -44.6658091 -0.189598E-07  0.279E-04    2.29      60.5  T
     SCC iter.                  ...        0 min,  0.004 sec
     gradient                   ...        0 min,  0.003 sec
 * total energy  :   -43.8810212 Eh     change       -0.5830766E-04 Eh
   gradient norm :     0.0036426 Eh/α   predicted    -0.3683872E-04 ( -36.82%)
   displ. norm   :     0.3099758 α      lambda       -0.1538545E-03
   maximum displ.:     0.1687638 α      in ANC's #1, #3, #4, ...

........................................................................
.............................. CYCLE   28 ..............................
........................................................................

 iter      E             dE          RMSdq      gap      omega  full diag
   1    -44.6669669 -0.446670E+02  0.502E-02    2.29       0.0  T
   2    -44.6669674 -0.492840E-06  0.295E-02    2.29       1.0  T
   3    -44.6669667  0.726919E-06  0.485E-03    2.29       3.5  T
   4    -44.6669675 -0.838990E-06  0.134E-03    2.29      12.6  T
   5    -44.6669675 -0.437865E-07  0.568E-04    2.29      29.8  T
   6    -44.6669675 -0.127252E-08  0.276E-04    2.29      61.3  T
     SCC iter.                  ...        0 min,  0.005 sec
     gradient                   ...        0 min,  0.003 sec
 * total energy  :   -43.8811363 Eh     change       -0.1150808E-03 Eh
   gradient norm :     0.0032873 Eh/α   predicted    -0.8431946E-04 ( -26.73%)
   displ. norm   :     0.4301650 α      lambda       -0.1432715E-03
   maximum displ.:     0.2321950 α      in ANC's #1, #4, #2, ...

........................................................................
.............................. CYCLE   29 ..............................
........................................................................

 iter      E             dE          RMSdq      gap      omega  full diag
   1    -44.6667479 -0.446667E+02  0.699E-02    2.29       0.0  T
   2    -44.6667484 -0.469378E-06  0.412E-02    2.29       1.0  T
   3    -44.6667472  0.124356E-05  0.601E-03    2.29       2.8  T
   4    -44.6667486 -0.146243E-05  0.134E-03    2.29      12.6  T
   5    -44.6667486 -0.221042E-07  0.694E-04    2.29      24.4  T
   6    -44.6667487 -0.648897E-08  0.244E-04    2.29      69.4  T
     SCC iter.                  ...        0 min,  0.005 sec
     gradient                   ...        0 min,  0.003 sec
 * total energy  :   -43.8812501 Eh     change       -0.1137521E-03 Eh
   gradient norm :     0.0047690 Eh/α   predicted    -0.8490559E-04 ( -25.36%)
   displ. norm   :     0.4327744 α      lambda       -0.1735626E-03
   maximum displ.:     0.2345098 α      in ANC's #1, #2, #4, ...

........................................................................
.............................. CYCLE   30 ..............................
........................................................................

 iter      E             dE          RMSdq      gap      omega  full diag
   1    -44.6675013 -0.446675E+02  0.791E-02    2.30       0.0  T
   2    -44.6675019 -0.562317E-06  0.466E-02    2.30       1.0  T
   3    -44.6675009  0.955248E-06  0.556E-03    2.30       3.0  T
   4    -44.6675021 -0.118913E-05  0.144E-03    2.30      11.7  T
   5    -44.6675021 -0.239243E-07  0.765E-04    2.30      22.1  T
   6    -44.6675022 -0.804948E-08  0.243E-04    2.30      69.7  T
     SCC iter.                  ...        0 min,  0.005 sec
     gradient                   ...        0 min,  0.003 sec
 * total energy  :   -43.8813781 Eh     change       -0.1280760E-03 Eh
   gradient norm :     0.0045071 Eh/α   predicted    -0.1030363E-03 ( -19.55%)
   displ. norm   :     0.3647839 α      lambda       -0.1569246E-03
   maximum displ.:     0.1944338 α      in ANC's #1, #2, #4, ...

........................................................................
.............................. CYCLE   31 ..............................
........................................................................

 iter      E             dE          RMSdq      gap      omega  full diag
   1    -44.6676745 -0.446677E+02  0.708E-02    2.31       0.0  T
   2    -44.6676750 -0.491507E-06  0.417E-02    2.31       1.0  T
   3    -44.6676746  0.376380E-06  0.395E-03    2.31       4.3  T
   4    -44.6676751 -0.531895E-06  0.130E-03    2.31      13.0  T
   5    -44.6676751 -0.209815E-07  0.653E-04    2.31      25.9  T
   6    -44.6676751 -0.388927E-08  0.281E-04    2.31      60.2  T
     SCC iter.                  ...        0 min,  0.005 sec
     gradient                   ...        0 min,  0.003 sec
 * total energy  :   -43.8815043 Eh     change       -0.1261732E-03 Eh
   gradient norm :     0.0035523 Eh/α   predicted    -0.8890924E-04 ( -29.53%)
   displ. norm   :     0.4420373 α      lambda       -0.2000224E-03
   maximum displ.:     0.2276152 α      in ANC's #1, #4, #2, ...

........................................................................
.............................. CYCLE   32 ..............................
........................................................................

 iter      E             dE          RMSdq      gap      omega  full diag
   1    -44.6661681 -0.446662E+02  0.904E-02    2.31       0.0  T
   2    -44.6661690 -0.894693E-06  0.533E-02    2.31       1.0  T
   3    -44.6661678  0.128155E-05  0.657E-03    2.31       2.6  T
   4    -44.6661693 -0.155499E-05  0.189E-03    2.31       8.9  T
   5    -44.6661694 -0.640485E-07  0.906E-04    2.31      18.7  T
   6    -44.6661694 -0.624287E-08  0.424E-04    2.31      39.8  T
     SCC iter.                  ...        0 min,  0.005 sec
     gradient                   ...        0 min,  0.003 sec
 * total energy  :   -43.8816499 Eh     change       -0.1455762E-03 Eh
   gradient norm :     0.0050592 Eh/α   predicted    -0.1195546E-03 ( -17.87%)
   displ. norm   :     0.2747835 α      lambda       -0.1669947E-03
   maximum displ.:     0.1340775 α      in ANC's #10, #2, #4, ...

........................................................................
.............................. CYCLE   33 ..............................
........................................................................

 iter      E             dE          RMSdq      gap      omega  full diag
   1    -44.6683476 -0.446683E+02  0.685E-02    2.31       0.0  T
   2    -44.6683485 -0.841848E-06  0.402E-02    2.32       1.0  T
   3    -44.6683463  0.214716E-05  0.800E-03    2.32       2.1  T
   4    -44.6683487 -0.239394E-05  0.201E-03    2.32       8.4  T
   5    -44.6683488 -0.103133E-06  0.767E-04    2.32      22.0  T
   6    -44.6683488  0.876149E-09  0.325E-04    2.32      52.1  T
     SCC iter.                  ...        0 min,  0.005 sec
     gradient                   ...        0 min,  0.003 sec
 * total energy  :   -43.8817151 Eh     change       -0.6520205E-04 Eh
   gradient norm :     0.0072607 Eh/α   predicted    -0.8980495E-04 (  37.73%)
   displ. norm   :     0.4907851 α      lambda       -0.2694685E-03
   maximum displ.:     0.2649521 α      in ANC's #1, #4, #2, ...

........................................................................
.............................. CYCLE   34 ..............................
........................................................................

 iter      E             dE          RMSdq      gap      omega  full diag
   1    -44.6623138 -0.446623E+02  0.103E-01    2.31       0.0  T
   2    -44.6623168 -0.297696E-05  0.603E-02    2.32       1.0  T
   3    -44.6623134  0.336615E-05  0.107E-02    2.32       1.6  T
   4    -44.6623172 -0.381046E-05  0.347E-03    2.32       4.9  T
   5    -44.6623175 -0.324725E-06  0.136E-03    2.32      12.4  T
   6    -44.6623175 -0.250174E-08  0.676E-04    2.32      25.0  T
   7    -44.6623175 -0.860295E-08  0.157E-04    2.32     107.8  T
     SCC iter.                  ...        0 min,  0.006 sec
     gradient                   ...        0 min,  0.003 sec
 * total energy  :   -43.8817340 Eh     change       -0.1889953E-04 Eh
   gradient norm :     0.0089231 Eh/α   predicted    -0.1671886E-03 ( 784.62%)
   displ. norm   :     0.2567875 α      lambda       -0.2377105E-03
   maximum displ.:     0.1311731 α      in ANC's #4, #1, #2, ...

........................................................................
.............................. CYCLE   35 ..............................
........................................................................

 iter      E             dE          RMSdq      gap      omega  full diag
   1    -44.6688810 -0.446689E+02  0.542E-02    2.33       0.0  T
   2    -44.6688825 -0.155035E-05  0.316E-02    2.32       1.0  T
   3    -44.6688821  0.396940E-06  0.477E-03    2.32       3.5  T
   4    -44.6688826 -0.447511E-06  0.228E-03    2.32       7.4  T
   5    -44.6688828 -0.173152E-06  0.912E-04    2.32      18.5  T
   6    -44.6688828 -0.506486E-08  0.443E-04    2.32      38.2  T
     SCC iter.                  ...        0 min,  0.005 sec
     gradient                   ...        0 min,  0.003 sec
 * total energy  :   -43.8818316 Eh     change       -0.9759836E-04 Eh
   gradient norm :     0.0032326 Eh/α   predicted    -0.1266930E-03 (  29.81%)
   displ. norm   :     0.1794216 α      lambda       -0.7437071E-04
   maximum displ.:     0.0908541 α      in ANC's #1, #4, #2, ...

........................................................................
.............................. CYCLE   36 ..............................
........................................................................

 iter      E             dE          RMSdq      gap      omega  full diag
   1    -44.6682689 -0.446683E+02  0.442E-02    2.33       0.0  T
   2    -44.6682698 -0.834405E-06  0.259E-02    2.33       1.0  T
   3    -44.6682696  0.151711E-06  0.336E-03    2.33       5.0  T
   4    -44.6682698 -0.201298E-06  0.162E-03    2.33      10.4  T
   5    -44.6682699 -0.726090E-07  0.619E-04    2.33      27.3  T
   6    -44.6682699 -0.393932E-09  0.321E-04    2.33      52.7  T
     SCC iter.                  ...        0 min,  0.005 sec
     gradient                   ...        0 min,  0.003 sec
 * total energy  :   -43.8818642 Eh     change       -0.3259050E-04 Eh
   gradient norm :     0.0027468 Eh/α   predicted    -0.3838402E-04 (  17.78%)
   displ. norm   :     0.1610662 α      lambda       -0.4629726E-04
   maximum displ.:     0.0933992 α      in ANC's #1, #4, #2, ...

........................................................................
.............................. CYCLE   37 ..............................
........................................................................

 iter      E             dE          RMSdq      gap      omega  full diag
   1    -44.6679403 -0.446679E+02  0.373E-02    2.33       0.0  T
   2    -44.6679405 -0.158922E-06  0.219E-02    2.33       1.0  T
   3    -44.6679403  0.209652E-06  0.261E-03    2.33       6.5  T
   4    -44.6679405 -0.255154E-06  0.736E-04    2.33      23.0  T
   5    -44.6679405 -0.111226E-07  0.335E-04    2.33      50.4  T
     SCC iter.                  ...        0 min,  0.004 sec
     gradient                   ...        0 min,  0.003 sec
 * total energy  :   -43.8819038 Eh     change       -0.3967222E-04 Eh
   gradient norm :     0.0020410 Eh/α   predicted    -0.2375320E-04 ( -40.13%)
   displ. norm   :     0.4250728 α      lambda       -0.9914992E-04
   maximum displ.:     0.2494535 α      in ANC's #1, #4, #2, ...

........................................................................
.............................. CYCLE   38 ..............................
........................................................................

 iter      E             dE          RMSdq      gap      omega  full diag
   1    -44.6669538 -0.446670E+02  0.103E-01    2.33       0.0  T
   2    -44.6669548 -0.106218E-05  0.604E-02    2.33       1.0  T
   3    -44.6669535  0.128434E-05  0.645E-03    2.33       2.6  T
   4    -44.6669552 -0.164040E-05  0.175E-03    2.33       9.6  T
   5    -44.6669552 -0.517356E-07  0.888E-04    2.33      19.0  T
   6    -44.6669552 -0.517881E-08  0.442E-04    2.33      38.3  T
     SCC iter.                  ...        0 min,  0.005 sec
     gradient                   ...        0 min,  0.003 sec
 * total energy  :   -43.8819620 Eh     change       -0.5814403E-04 Eh
   gradient norm :     0.0039807 Eh/α   predicted    -0.5853713E-04 (   0.68%)
   displ. norm   :     0.1064059 α      lambda       -0.3814866E-04
   maximum displ.:     0.0625191 α      in ANC's #1, #4, #2, ...

........................................................................
.............................. CYCLE   39 ..............................
........................................................................

 iter      E             dE          RMSdq      gap      omega  full diag
   1    -44.6686222 -0.446686E+02  0.315E-02    2.34       0.0  T
   2    -44.6686224 -0.180213E-06  0.184E-02    2.34       1.0  T
   3    -44.6686223  0.989035E-07  0.197E-03    2.34       8.6  T
   4    -44.6686225 -0.132319E-06  0.619E-04    2.34      27.3  T
   5    -44.6686225 -0.925433E-08  0.292E-04    2.34      57.8  T
     SCC iter.                  ...        0 min,  0.004 sec
     gradient                   ...        0 min,  0.003 sec
 * total energy  :   -43.8819911 Eh     change       -0.2914362E-04 Eh
   gradient norm :     0.0033389 Eh/α   predicted    -0.1929297E-04 ( -33.80%)
   displ. norm   :     0.3296520 α      lambda       -0.6746131E-04
   maximum displ.:     0.1959047 α      in ANC's #1, #4, #2, ...

........................................................................
.............................. CYCLE   40 ..............................
........................................................................

 iter      E             dE          RMSdq      gap      omega  full diag
   1    -44.6686511 -0.446687E+02  0.884E-02    2.34       0.0  T
   2    -44.6686517 -0.630105E-06  0.519E-02    2.34       1.0  T
   3    -44.6686510  0.713840E-06  0.485E-03    2.34       3.5  T
   4    -44.6686520 -0.999362E-06  0.113E-03    2.34      14.9  T
   5    -44.6686520 -0.515702E-08  0.637E-04    2.34      26.5  T
   6    -44.6686520 -0.374013E-08  0.277E-04    2.34      61.1  T
     SCC iter.                  ...        0 min,  0.005 sec
     gradient                   ...        0 min,  0.003 sec
 * total energy  :   -43.8820368 Eh     change       -0.4571586E-04 Eh
   gradient norm :     0.0025898 Eh/α   predicted    -0.3739504E-04 ( -18.20%)
   displ. norm   :     0.1933414 α      lambda       -0.4360460E-04
   maximum displ.:     0.1192913 α      in ANC's #1, #4, #2, ...

........................................................................
.............................. CYCLE   41 ..............................
........................................................................

 iter      E             dE          RMSdq      gap      omega  full diag
   1    -44.6698073 -0.446698E+02  0.567E-02    2.35       0.0  T
   2    -44.6698076 -0.314162E-06  0.333E-02    2.35       1.0  T
   3    -44.6698073  0.311017E-06  0.328E-03    2.35       5.2  T
   4    -44.6698077 -0.430326E-06  0.763E-04    2.35      22.2  T
   5    -44.6698077 -0.525073E-08  0.424E-04    2.35      39.9  T
     SCC iter.                  ...        0 min,  0.004 sec
     gradient                   ...        0 min,  0.003 sec
 * total energy  :   -43.8820627 Eh     change       -0.2582577E-04 Eh
   gradient norm :     0.0013260 Eh/α   predicted    -0.2261824E-04 ( -12.42%)
   displ. norm   :     0.3806335 α      lambda       -0.2932149E-04
   maximum displ.:     0.2400946 α      in ANC's #1, #4, #2, ...

........................................................................
.............................. CYCLE   42 ..............................
........................................................................

 iter      E             dE          RMSdq      gap      omega  full diag
   1    -44.6683405 -0.446683E+02  0.105E-01    2.35       0.0  T
   2    -44.6683416 -0.110190E-05  0.614E-02    2.35       1.0  T
   3    -44.6683404  0.113711E-05  0.611E-03    2.35       2.8  T
   4    -44.6683420 -0.154481E-05  0.152E-03    2.35      11.2  T
   5    -44.6683420 -0.264804E-07  0.820E-04    2.35      20.6  T
   6    -44.6683420 -0.143862E-08  0.419E-04    2.35      40.4  T
     SCC iter.                  ...        0 min,  0.005 sec
     gradient                   ...        0 min,  0.003 sec
 * total energy  :   -43.8820647 Eh     change       -0.2004148E-05 Eh
   gradient norm :     0.0037689 Eh/α   predicted    -0.1560575E-04 ( 678.67%)
   displ. norm   :     0.1389750 α      lambda       -0.3335790E-04
   maximum displ.:     0.0766000 α      in ANC's #1, #4, #2, ...
 * RMSD in coord.:     0.7940745 α      energy gain  -0.1547787E-02 Eh

generating ANC from exact Hessian ...
Using Lindh-Hessian (1995)
 Shifting diagonal of input Hessian by    9.5254530864141290E-003
 Lowest  eigenvalues of input Hessian
    0.000000    0.000000    0.000000    0.000000    0.000000    0.000000
    0.010000    0.010572    0.010902    0.011647    0.012539    0.013581
    0.014083    0.015906    0.016903    0.017711    0.018564    0.019874
 Highest eigenvalues
    1.748229    1.901843    1.927567    1.965462    2.006156    2.033395


........................................................................
.............................. CYCLE   43 ..............................
........................................................................

 iter      E             dE          RMSdq      gap      omega  full diag
   1    -44.6708823 -0.446709E+02  0.353E-02    2.35       0.0  T
   2    -44.6708826 -0.326874E-06  0.207E-02    2.35       1.0  T
   3    -44.6708824  0.209391E-06  0.259E-03    2.35       6.5  T
   4    -44.6708826 -0.249259E-06  0.903E-04    2.35      18.7  T
   5    -44.6708826 -0.263508E-07  0.402E-04    2.35      42.0  T
     SCC iter.                  ...        0 min,  0.004 sec
     gradient                   ...        0 min,  0.003 sec
 * total energy  :   -43.8820795 Eh     change       -0.1477418E-04 Eh
   gradient norm :     0.0028195 Eh/α   predicted     0.0000000E+00 (-100.00%)
   displ. norm   :     0.0152974 α      lambda       -0.1654141E-04
   maximum displ.:     0.0072790 α      in ANC's #5, #9, #1, ...

........................................................................
.............................. CYCLE   44 ..............................
........................................................................

 iter      E             dE          RMSdq      gap      omega  full diag
   1    -44.6697775 -0.446698E+02  0.721E-03    2.35       0.0  T
   2    -44.6697776 -0.674652E-07  0.409E-03    2.35       4.1  T
   3    -44.6697776  0.234195E-08  0.100E-03    2.35      16.8  T
   4    -44.6697776 -0.936461E-08  0.261E-04    2.35      64.7  T
   5    -44.6697776 -0.907839E-09  0.140E-04    2.35     121.1  T
     SCC iter.                  ...        0 min,  0.004 sec
     gradient                   ...        0 min,  0.003 sec
 * total energy  :   -43.8820904 Eh     change       -0.1097130E-04 Eh
   gradient norm :     0.0008615 Eh/α   predicted    -0.8301314E-05 ( -24.34%)
   displ. norm   :     0.0296387 α      lambda       -0.5171876E-05
   maximum displ.:     0.0169783 α      in ANC's #5, #9, #1, ...

........................................................................
.............................. CYCLE   45 ..............................
........................................................................

 iter      E             dE          RMSdq      gap      omega  full diag
   1    -44.6690742 -0.446691E+02  0.836E-03    2.35       0.0  T
   2    -44.6690742 -0.277554E-07  0.488E-03    2.35       3.5  T
   3    -44.6690742  0.114577E-07  0.771E-04    2.35      21.9  T
   4    -44.6690742 -0.138366E-07  0.291E-04    2.35      58.0  T
     SCC iter.                  ...        0 min,  0.004 sec
     gradient                   ...        0 min,  0.003 sec
 * total energy  :   -43.8820946 Eh     change       -0.4171473E-05 Eh
   gradient norm :     0.0008782 Eh/α   predicted    -0.2587431E-05 ( -37.97%)
   displ. norm   :     0.0261581 α      lambda       -0.2495121E-05
   maximum displ.:     0.0157103 α      in ANC's #5, #9, #1, ...

   *** GEOMETRY OPTIMIZATION CONVERGED AFTER 45 ITERATIONS ***

------------------------------------------------------------------------
 total energy gain   :        -0.0129548 Eh       -8.1293 kcal/mol
 total RMSD          :         1.1609803 a0        0.6144 Å
 total power (kW/mol):        -0.7558416 (step)  -71.9572 (real)
------------------------------------------------------------------------

 ANCopt (total)                0 d,  0 h,  0 min,  0.473 sec
 optimizer setup                ...        0 min,  0.000 sec (  0.012%)
 model hessian                  ...        0 min,  0.038 sec (  8.010%)
 ANC generation                 ...        0 min,  0.002 sec (  0.451%)
 coordinate transformation      ...        0 min,  0.000 sec (  0.058%)
 single point calculation       ...        0 min,  0.426 sec ( 90.104%)
 optimization log               ...        0 min,  0.003 sec (  0.618%)
 hessian update                 ...        0 min,  0.000 sec (  0.088%)
 rational function              ...        0 min,  0.002 sec (  0.434%)

================
 final structure:
================
35
 xtb: 6.7.1 (edcfbbe)
C           -3.79628586707203       -0.77452101044618        0.65627234428624
C           -2.32716981019001       -1.20373154173848        0.75365717979973
C           -1.47048630179197       -0.33936463204130       -0.11932497602813
C           -1.22729127738647       -0.66245233992540       -1.42084524332192
C           -0.57897920955942        0.21875159668756       -2.29299153044534
C           -0.28978887904596        1.52182521100320       -1.86130592411656
C           -0.49552106396502        1.89177789921387       -0.57322319139689
C           -0.89008775126790        0.90647428855089        0.46876843410648
C            0.36562899763951        0.51175137190025        1.35563049074805
C            0.86287760519257        1.70090933712846        2.17171142332650
C            1.41674889437973       -0.10651654271138        0.47855214955390
C            1.44296179591930       -1.48822461649380        0.32050803573080
C            2.35494976048637       -2.09167892331578       -0.52479720949134
C            3.26155149095857       -1.31997010912338       -1.23054130163748
C            3.24890948564935        0.05532977059339       -1.07842644551283
C            2.33347888582668        0.65698193560256       -0.23383036979768
H           -4.42089276635143       -1.41112650685458        1.27888247377341
H           -4.14015805070510       -0.84569063267360       -0.37272994523445
H           -3.91500522331666        0.25522354507006        0.98478852738578
H           -2.01152058010222       -1.13311985586063        1.79796653532803
H           -2.24381693811006       -2.24718762842060        0.44035254873987
H           -1.58385292004410       -1.60839752590140       -1.80653365816907
H           -0.37745553231206       -0.07459179432589       -3.31052417990536
H            0.06788581867565        2.24483381877611       -2.58124782973685
H           -0.32501200905501        2.90988612885363       -0.25720014446200
H           -1.60118049247808        1.36001889755411        1.17233936762328
H            0.01794246386641       -0.25361517214446        2.05792270458439
H            1.73697182781013        1.40881330732087        2.75124043437657
H            1.13824465442195        2.53973619783992        1.53953456505041
H            0.08833134773388        2.03384261656153        2.86077785305347
H            0.73701179960893       -2.09864108144342        0.86635770508363
H            2.35709159189758       -3.16677094177433       -0.63462157364426
H            3.97374296426018       -1.78788248144245       -1.89445145483404
H            3.95379801077480        0.66549506440053       -1.62496944533158
H            2.33647727765094        1.73163234958554       -0.13759834949962

 Bond Distances (Angstroems)
 ---------------------------
C1-C2=1.5336         C1-H17=1.0877        C1-H18=1.0873        C1-H19=1.0874        C2-C1=1.5336         C2-C3=1.4977         
C2-H20=1.0933        C2-H21=1.0927        C3-C2=1.4977         C3-C4=1.3629         C3-C8=1.4949         C4-C3=1.3629         
C4-C5=1.3991         C4-H22=1.0820        C5-C4=1.3991         C5-C6=1.4028         C5-H23=1.0780        C6-C5=1.4028         
C6-C7=1.3559         C6-H24=1.0812        C7-C6=1.3559         C7-C8=1.4874         C7-H25=1.0796        C8-C3=1.4949         
C8-C7=1.4874         C8-C9=1.5872         C8-H26=1.0983        C9-C8=1.5872         C9-C10=1.5256        C9-C11=1.5021        
C9-H27=1.0954        C10-C9=1.5256        C10-H28=1.0887       C10-H29=1.0859       C10-H30=1.0888       C11-C9=1.5021        
C11-C12=1.3910       C11-C16=1.3895       C12-C11=1.3910       C12-C13=1.3822       C12-H31=1.0812       C13-C12=1.3822       
C13-C14=1.3840       C13-H32=1.0807       C14-C13=1.3840       C14-C15=1.3837       C14-H33=1.0802       C15-C14=1.3837       
C15-C16=1.3832       C15-H34=1.0807       C16-C11=1.3895       C16-C15=1.3832       C16-H35=1.0790       H17-C1=1.0877        
H18-C1=1.0873        H19-C1=1.0874        H20-C2=1.0933        H21-C2=1.0927        H22-C4=1.0820        H23-C5=1.0780        
H24-C6=1.0812        H25-C7=1.0796        H26-C8=1.0983        H27-C9=1.0954        H28-C10=1.0887       H29-C10=1.0859       
H30-C10=1.0888       H31-C12=1.0812       H32-C13=1.0807       H33-C14=1.0802       H34-C15=1.0807       H35-C16=1.0790       
 C  H  Rav=1.0857 sigma=0.0059  Rmin=1.0780  Rmax=1.0983    19
 C  C  Rav=1.4390 sigma=0.0703  Rmin=1.3559  Rmax=1.5872    17

 selected bond angles (degree)
 --------------------
H17-C1-C2=110.48               H18-C1-C2=110.17               H18-C1-H17=108.77              H19-C1-C2=110.51               
H19-C1-H17=108.58              H19-C1-H18=108.26              C3-C2-C1=110.45                H20-C2-C1=108.61               
H20-C2-C3=110.75               H21-C2-C1=108.79               H21-C2-C3=109.90               H21-C2-H20=108.27              
C4-C3-C2=121.46                C8-C3-C2=118.28                C8-C3-C4=120.26                C5-C4-C3=121.92                
H22-C4-C3=119.27               H22-C4-C5=118.76               C6-C5-C4=119.26                H23-C5-C4=120.24               
H23-C5-C6=120.31               C7-C6-C5=120.96                H24-C6-C5=118.98               H24-C6-C7=120.02               
C8-C7-C6=121.67                H25-C7-C6=120.76               H25-C7-C8=117.49               C7-C8-C3=112.30                
C9-C8-C3=108.65                C9-C8-C7=110.26                H26-C8-C3=110.17               H26-C8-C7=110.30               
H26-C8-C9=104.89               C10-C9-C8=111.28               C11-C9-C8=109.25               C11-C9-C10=113.90              
H27-C9-C8=106.31               H27-C9-C10=107.77              H27-C9-C11=107.99              H28-C10-C9=109.71              
H29-C10-C9=111.92              H29-C10-H28=108.27             H30-C10-C9=110.18              H30-C10-H28=108.44             
H30-C10-H29=108.22             

 selected dihedral angles (degree)
 ---------------------------------
C3-C2-C1-H17=179.18           C3-C2-C1-H18= 58.97           C3-C2-C1-H19=299.37           H20-C2-C1-H17=300.82          
H20-C2-C1-H18=180.61          H20-C2-C1-H19= 61.02          H21-C2-C1-H17= 58.47          H21-C2-C1-H18=298.26          
H21-C2-C1-H19=178.67          C4-C3-C2-C1=270.41            C4-C3-C2-H20=150.04           C4-C3-C2-H21= 30.45           
C8-C3-C2-C1= 89.87            C8-C3-C2-H20=329.50           C8-C3-C2-H21=209.91           C5-C4-C3-C2=171.43            
C5-C4-C3-C8=351.98            H22-C4-C3-C2=354.26           H22-C4-C3-C8=174.81           C6-C5-C4-C3=353.42            
C6-C5-C4-H22=170.61           H23-C5-C4-C3=178.40           H23-C5-C4-H22=355.59          C7-C6-C5-C4=  7.24            
C7-C6-C5-H23=182.26           H24-C6-C5-C4=189.48           H24-C6-C5-H23=  4.50          C8-C7-C6-C5=  6.85            
C8-C7-C6-H24=184.58           H25-C7-C6-C5=183.49           H25-C7-C6-H24=  1.23          C7-C8-C3-C2=200.61            
C7-C8-C3-C4= 20.08            C9-C8-C3-C2= 78.38            C9-C8-C3-C4=257.84            H26-C8-C3-C2=323.99           
H26-C8-C3-C4=143.46           C3-C8-C7-C6=340.32            C3-C8-C7-H25=163.57           C9-C8-C7-C6=101.64            
C9-C8-C7-H25=284.89           H26-C8-C7-C6=217.02           H26-C8-C7-H25= 40.27          C10-C9-C8-C3=189.60           
C10-C9-C8-C7= 66.13           C10-C9-C8-H26=307.39          C11-C9-C8-C3= 62.97           C11-C9-C8-C7=299.51           
C11-C9-C8-H26=180.77          H27-C9-C8-C3=306.67           H27-C9-C8-C7=183.20           H27-C9-C8-H26= 64.46          
H28-C10-C9-C8=181.33          H28-C10-C9-C11=305.36         H28-C10-C9-H27= 65.14         H29-C10-C9-C8=301.55          
H29-C10-C9-C11= 65.58         H29-C10-C9-H27=185.36         H30-C10-C9-C8= 62.01          H30-C10-C9-C11=186.04         
H30-C10-C9-H27=305.82         
           -------------------------------------------------
          |                Final Singlepoint                |
           -------------------------------------------------

          ...................................................
          :                      SETUP                      :
          :.................................................:
          :  # basis functions                  83          :
          :  # atomic orbitals                  83          :
          :  # shells                           51          :
          :  # electrons                        83          :
          :  max. iterations                   250          :
          :  Hamiltonian                  GFN2-xTB          :
          :  restarted?                      false          :
          :  GBSA solvation                  false          :
          :  PC potential                    false          :
          :  electronic temp.          300.0000000     K    :
          :  accuracy                    1.0000000          :
          :  -> integral cutoff          0.2500000E+02      :
          :  -> integral neglect         0.1000000E-07      :
          :  -> SCF convergence          0.1000000E-05 Eh   :
          :  -> wf. convergence          0.1000000E-03 e    :
          :  Broyden damping             0.4000000          :
          :  net charge                          0          :
          :  unpaired electrons                  0          :
          ...................................................

 iter      E             dE          RMSdq      gap      omega  full diag
   1    -44.6690742 -0.446691E+02  0.119E-04    2.35       0.0  T
   2    -44.6690742 -0.736122E-11  0.856E-05    2.35     197.5  T
   3    -44.6690742 -0.120352E-09  0.500E-05    2.35     338.4  T

   *** convergence criteria satisfied after 3 iterations ***

         #    Occupation            Energy/Eh            Energy/eV
      -------------------------------------------------------------
         1        2.0000           -0.6398088             -17.4101
       ...           ...                  ...                  ...
        36        2.0000           -0.4124824             -11.2242
        37        2.0000           -0.4100074             -11.1569
        38        2.0000           -0.4065947             -11.0640
        39        2.0000           -0.3973684             -10.8129
        40        2.0000           -0.3883811             -10.5684
        41        2.0000           -0.3852226             -10.4824
        42        1.0000           -0.2996642              -8.1543 (HOMO)
        43                         -0.2133800              -5.8064 (LUMO)
        44                         -0.2128862              -5.7929
        45                         -0.2038232              -5.5463
        46                         -0.1231120              -3.3500
        47                         -0.0847070              -2.3050
       ...                                ...                  ...
        83                          0.6745598              18.3557
      -------------------------------------------------------------
                  HL-Gap            0.0862842 Eh            2.3479 eV
             Fermi-level           -0.2994827 Eh           -8.1493 eV

 SCC (total)                   0 d,  0 h,  0 min,  0.007 sec
 SCC setup                      ...        0 min,  0.000 sec (  0.799%)
 Dispersion                     ...        0 min,  0.000 sec (  1.352%)
 classical contributions        ...        0 min,  0.000 sec (  0.319%)
 integral evaluation            ...        0 min,  0.001 sec ( 14.017%)
 iterations                     ...        0 min,  0.003 sec ( 36.976%)
 molecular gradient             ...        0 min,  0.003 sec ( 42.970%)
 printout                       ...        0 min,  0.000 sec (  3.447%)

         :::::::::::::::::::::::::::::::::::::::::::::::::::::
         ::                     SUMMARY                     ::
         :::::::::::::::::::::::::::::::::::::::::::::::::::::
         :: total energy             -43.882094598619 Eh    ::
         :: gradient norm              0.000878568058 Eh/a0 ::
         :: HOMO-LUMO gap              2.347911414292 eV    ::
         ::.................................................::
         :: SCC energy               -44.668285077806 Eh    ::
         :: -> isotropic ES            0.004463660708 Eh    ::
         :: -> anisotropic ES          0.009807671218 Eh    ::
         :: -> anisotropic XC          0.028404433987 Eh    ::
         :: -> dispersion             -0.038718739947 Eh    ::
         :: repulsion energy           0.786190479187 Eh    ::
         :: add. restraining           0.000000000000 Eh    ::
         :: total charge              -0.000000000000 e     ::
         :::::::::::::::::::::::::::::::::::::::::::::::::::::

           -------------------------------------------------
          |                Property Printout                |
           -------------------------------------------------

    * Orbital Energies and Occupations

         #    Occupation            Energy/Eh            Energy/eV
      -------------------------------------------------------------
         1        2.0000           -0.6398088             -17.4101
       ...           ...                  ...                  ...
        30        2.0000           -0.4531145             -12.3299
        31        2.0000           -0.4469221             -12.1614
        32        2.0000           -0.4405002             -11.9866
        33        2.0000           -0.4371763             -11.8962
        34        2.0000           -0.4317369             -11.7482
        35        2.0000           -0.4158153             -11.3149
        36        2.0000           -0.4124824             -11.2242
        37        2.0000           -0.4100074             -11.1569
        38        2.0000           -0.4065947             -11.0640
        39        2.0000           -0.3973684             -10.8129
        40        2.0000           -0.3883811             -10.5684
        41        2.0000           -0.3852226             -10.4824
        42        1.0000           -0.2996642              -8.1543 (HOMO)
        43                         -0.2133800              -5.8064 (LUMO)
        44                         -0.2128862              -5.7929
        45                         -0.2038232              -5.5463
        46                         -0.1231120              -3.3500
        47                         -0.0847070              -2.3050
        48                          0.0688138               1.8725
        49                          0.0854340               2.3248
        50                          0.1041108               2.8330
        51                          0.1102112               2.9990
        52                          0.1135261               3.0892
        53                          0.1212858               3.3004
       ...                                ...                  ...
        83                          0.6745598              18.3557
      -------------------------------------------------------------
                  HL-Gap            0.0862842 Eh            2.3479 eV
             Fermi-level           -0.2994827 Eh           -8.1493 eV

     #   Z          covCN         q      C6AA      α(0)
     1   6 C        3.753    -0.098    22.421     6.752
     2   6 C        3.805    -0.054    21.546     6.608
     3   6 C        2.962     0.000    28.023     8.683
     4   6 C        2.909    -0.039    28.960     8.824
     5   6 C        2.916    -0.042    29.054     8.839
     6   6 C        2.904    -0.032    28.788     8.798
     7   6 C        2.909    -0.042    29.035     8.836
     8   6 C        3.861    -0.015    20.809     6.487
     9   6 C        3.855    -0.015    20.800     6.486
    10   6 C        3.753    -0.101    22.479     6.761
    11   6 C        2.971     0.011    27.761     8.643
    12   6 C        2.927    -0.037    28.915     8.818
    13   6 C        2.919    -0.031    28.773     8.796
    14   6 C        2.920    -0.033    28.831     8.805
    15   6 C        2.920    -0.031    28.783     8.798
    16   6 C        2.925    -0.034    28.844     8.807
    17   1 H        0.925     0.036     2.504     2.475
    18   1 H        0.925     0.037     2.490     2.468
    19   1 H        0.925     0.034     2.530     2.487
    20   1 H        0.924     0.032     2.556     2.500
    21   1 H        0.924     0.035     2.518     2.482
    22   1 H        0.925     0.024     2.673     2.557
    23   1 H        0.926     0.022     2.698     2.569
    24   1 H        0.926     0.024     2.679     2.560
    25   1 H        0.926     0.023     2.695     2.567
    26   1 H        0.923     0.044     2.396     2.421
    27   1 H        0.924     0.034     2.530     2.488
    28   1 H        0.925     0.037     2.490     2.468
    29   1 H        0.925     0.041     2.435     2.440
    30   1 H        0.925     0.034     2.530     2.487
    31   1 H        0.926     0.024     2.675     2.558
    32   1 H        0.926     0.027     2.633     2.538
    33   1 H        0.926     0.027     2.633     2.537
    34   1 H        0.926     0.027     2.632     2.537
    35   1 H        0.926     0.031     2.568     2.506

 Mol. C6AA /au·bohr⁶  :      12659.535735
 Mol. C8AA /au·bohr⁸  :     299461.427089
 Mol. α(0) /au        :        177.384770


Wiberg/Mayer (AO) data.
largest (>0.10) Wiberg bond orders for each atom

 ---------------------------------------------------------------------------
     #   Z sym  total        # sym  WBO       # sym  WBO       # sym  WBO
 ---------------------------------------------------------------------------
     1   6 C    3.995 --     2 C    0.992    18 H    0.989    19 H    0.988
                            17 H    0.986
     2   6 C    3.997 --     3 C    1.024     1 C    0.992    21 H    0.973
                            20 H    0.969
     3   6 C    3.918 --     4 C    1.571     8 C    1.030     2 C    1.024
     4   6 C    3.992 --     3 C    1.571     5 C    1.335    22 H    0.966
     5   6 C    3.881 --     4 C    1.335     6 C    1.309    23 H    0.974
     6   6 C    3.993 --     7 C    1.627     5 C    1.309    24 H    0.968
     7   6 C    3.925 --     6 C    1.627     8 C    1.045    25 H    0.970
     8   6 C    3.995 --     7 C    1.045     3 C    1.030    26 H    0.940
                             9 C    0.874
     9   6 C    3.987 --    11 C    1.011    10 C    1.007    27 H    0.961
                             8 C    0.874
    10   6 C    3.996 --     9 C    1.007    30 H    0.986    28 H    0.984
                            29 H    0.982
    11   6 C    3.988 --    16 C    1.408    12 C    1.405     9 C    1.011
                            14 C    0.109
    12   6 C    3.992 --    13 C    1.449    11 C    1.405    31 H    0.969
                            15 C    0.110
    13   6 C    3.993 --    12 C    1.449    14 C    1.435    32 H    0.971
                            16 C    0.109
    14   6 C    3.992 --    15 C    1.438    13 C    1.435    33 H    0.972
                            11 C    0.109
    15   6 C    3.993 --    16 C    1.445    14 C    1.438    34 H    0.971
                            12 C    0.110
    16   6 C    3.992 --    15 C    1.445    11 C    1.408    35 H    0.966
                            13 C    0.109
    17   1 H    0.997 --     1 C    0.986
    18   1 H    0.999 --     1 C    0.989
    19   1 H    0.999 --     1 C    0.988
    20   1 H    0.999 --     2 C    0.969
    21   1 H    0.998 --     2 C    0.973
    22   1 H    0.999 --     4 C    0.966
    23   1 H    0.999 --     5 C    0.974
    24   1 H    0.999 --     6 C    0.968
    25   1 H    0.999 --     7 C    0.970
    26   1 H    0.997 --     8 C    0.940
    27   1 H    0.999 --     9 C    0.961
    28   1 H    0.997 --    10 C    0.984
    29   1 H    0.998 --    10 C    0.982
    30   1 H    0.998 --    10 C    0.986
    31   1 H    0.999 --    12 C    0.969
    32   1 H    0.999 --    13 C    0.971
    33   1 H    0.999 --    14 C    0.972
    34   1 H    0.999 --    15 C    0.971
    35   1 H    0.999 --    16 C    0.966
 ---------------------------------------------------------------------------

Topologies differ in total number of bonds
Writing topology from bond orders to xtbtopo.mol

molecular dipole:
                 x           y           z       tot (Debye)
 q only:       -0.208       0.061       0.418
   full:       -0.239       0.054       0.423       1.242
molecular quadrupole (traceless):
                xx          xy          yy          xz          yz          zz
 q only:       -0.122       1.437       0.584      -1.492       0.868      -0.462
  q+dip:       -3.872       3.199       3.600      -5.802       1.683       0.272
   full:       -1.604       2.090       1.676      -3.037       1.143      -0.072

           -------------------------------------------------
          |                Geometry Summary                 |
           -------------------------------------------------

      molecular mass/u    :      211.3226486
   center of mass at/Å    :        0.2192777      -0.0272139      -0.1629768
  moments of inertia/u·Å² :        0.6204604E+03   0.1149535E+04   0.1204001E+04
rotational constants/cm⁻¹ :        0.2716955E-01   0.1466475E-01   0.1400135E-01

 * 31 selected distances

     #   Z          #   Z                                           value/Å
     1   6 C        2   6 C                                       1.5336257 (max)
     3   6 C        4   6 C                                       1.3628958
     4   6 C        5   6 C                                       1.3990956
     5   6 C        6   6 C                                       1.4028488
     6   6 C        7   6 C                                       1.3558570
     9   6 C       10   6 C                                       1.5255626
    11   6 C       12   6 C                                       1.3909646
    12   6 C       13   6 C                                       1.3821796
    13   6 C       14   6 C                                       1.3840290
    14   6 C       15   6 C                                       1.3837445
    11   6 C       16   6 C                                       1.3895370
    15   6 C       16   6 C                                       1.3832358
     1   6 C       17   1 H                                       1.0876782
     1   6 C       18   1 H                                       1.0872714
     1   6 C       19   1 H                                       1.0873781
     2   6 C       20   1 H                                       1.0932533
     2   6 C       21   1 H                                       1.0926611
     4   6 C       22   1 H                                       1.0819909
     5   6 C       23   1 H                                       1.0779773 (min)
     6   6 C       24   1 H                                       1.0811980
     7   6 C       25   1 H                                       1.0795779
     8   6 C       26   1 H                                       1.0983478
     9   6 C       27   1 H                                       1.0953933
    10   6 C       28   1 H                                       1.0886758
    10   6 C       29   1 H                                       1.0858662
    10   6 C       30   1 H                                       1.0888431
    12   6 C       31   1 H                                       1.0811687
    13   6 C       32   1 H                                       1.0806892
    14   6 C       33   1 H                                       1.0802479
    15   6 C       34   1 H                                       1.0806845
    16   6 C       35   1 H                                       1.0789547

 * 2 distinct bonds (by element types)

   Z      Z             #   av. dist./Å        max./Å        min./Å
   1 H    6 C          19     1.0856767     1.0983478     1.0779773
   6 C    6 C          12     1.4077980     1.5336257     1.3558570


optimized geometry written to: xtbopt.xyz


           -------------------------------------------------
          | TOTAL ENERGY              -43.882094598619 Eh   |
          | GRADIENT NORM               0.000878568058 Eh/α |
          | HOMO-LUMO GAP               2.347911414292 eV   |
           -------------------------------------------------

------------------------------------------------------------------------
 * finished run on 2025/09/15 at 14:52:50.213     
------------------------------------------------------------------------
 total:
 * wall-time:     0 d,  0 h,  0 min,  0.525 sec
 *  cpu-time:     0 d,  0 h,  0 min,  2.080 sec
 * ratio c/w:     3.964 speedup
 SCF:
 * wall-time:     0 d,  0 h,  0 min,  0.025 sec
 *  cpu-time:     0 d,  0 h,  0 min,  0.096 sec
 * ratio c/w:     3.842 speedup
 ANC optimizer:
 * wall-time:     0 d,  0 h,  0 min,  0.481 sec
 *  cpu-time:     0 d,  0 h,  0 min,  1.923 sec
 * ratio c/w:     4.000 speedup

