35
 energy: -43.882094598619 gnorm: 0.000878568058 xtb: 6.7.1 (edcfbbe)
C           -3.79628586707203       -0.77452101044618        0.65627234428624
C           -2.32716981019001       -1.20373154173848        0.75365717979973
C           -1.47048630179197       -0.33936463204130       -0.11932497602813
C           -1.22729127738647       -0.66245233992540       -1.42084524332192
C           -0.57897920955942        0.21875159668756       -2.29299153044534
C           -0.28978887904596        1.52182521100320       -1.86130592411656
C           -0.49552106396502        1.89177789921387       -0.57322319139689
C           -0.89008775126790        0.90647428855089        0.46876843410648
C            0.36562899763951        0.51175137190025        1.35563049074805
C            0.86287760519257        1.70090933712846        2.17171142332650
C            1.41674889437973       -0.10651654271138        0.47855214955390
C            1.44296179591930       -1.48822461649380        0.32050803573080
C            2.35494976048637       -2.09167892331578       -0.52479720949134
C            3.26155149095857       -1.31997010912338       -1.23054130163748
C            3.24890948564935        0.05532977059339       -1.07842644551283
C            2.33347888582668        0.65698193560256       -0.23383036979768
H           -4.42089276635143       -1.41112650685458        1.27888247377341
H           -4.14015805070510       -0.84569063267360       -0.37272994523445
H           -3.91500522331666        0.25522354507006        0.98478852738578
H           -2.01152058010222       -1.13311985586063        1.79796653532803
H           -2.24381693811006       -2.24718762842060        0.44035254873987
H           -1.58385292004410       -1.60839752590140       -1.80653365816907
H           -0.37745553231206       -0.07459179432589       -3.31052417990536
H            0.06788581867565        2.24483381877611       -2.58124782973685
H           -0.32501200905501        2.90988612885363       -0.25720014446200
H           -1.60118049247808        1.36001889755411        1.17233936762328
H            0.01794246386641       -0.25361517214446        2.05792270458439
H            1.73697182781013        1.40881330732087        2.75124043437657
H            1.13824465442195        2.53973619783992        1.53953456505041
H            0.08833134773388        2.03384261656153        2.86077785305347
H            0.73701179960893       -2.09864108144342        0.86635770508363
H            2.35709159189758       -3.16677094177433       -0.63462157364426
H            3.97374296426018       -1.78788248144245       -1.89445145483404
H            3.95379801077480        0.66549506440053       -1.62496944533158
H            2.33647727765094        1.73163234958554       -0.13759834949962
