35
 energy: -43.869139777803 gnorm: 0.071873760673 xtb: 6.7.1 (edcfbbe)
C           -3.45510000000000       -0.87440000000000        1.09880000000000
C           -2.22230000000000       -1.34830000000000        0.34150000000000
C           -1.57530000000000       -0.25400000000000       -0.47890000000000
C           -1.59270000000000       -0.31670000000000       -1.82580000000000
C           -1.02160000000000        0.75440000000000       -2.60250000000000
C           -0.63250000000000        2.00700000000000       -2.01210000000000
C           -0.58350000000000        2.09870000000000       -0.67480000000000
C           -0.92550000000000        0.93750000000000        0.26110000000000
C            0.26620000000000        0.50980000000000        1.18840000000000
C            0.80000000000000        1.67660000000000        2.03720000000000
C            1.41000000000000       -0.21970000000000        0.48930000000000
C            1.60780000000000       -1.59040000000000        0.72500000000000
C            2.64770000000000       -2.28390000000000        0.10200000000000
C            3.50890000000000       -1.61790000000000       -0.76520000000000
C            3.33050000000000       -0.25880000000000       -1.00790000000000
C            2.29070000000000        0.43510000000000       -0.38420000000000
H           -3.93680000000000       -1.72150000000000        1.59810000000000
H           -4.18680000000000       -0.42040000000000        0.42220000000000
H           -3.19690000000000       -0.14130000000000        1.86920000000000
H           -1.50090000000000       -1.77340000000000        1.04570000000000
H           -2.52270000000000       -2.17960000000000       -0.30930000000000
H           -2.04230000000000       -1.14550000000000       -2.36250000000000
H           -0.95290000000000        0.63880000000000       -3.67850000000000
H           -0.38840000000000        2.84320000000000       -2.65720000000000
H           -0.30260000000000        3.04440000000000       -0.22130000000000
H           -1.70560000000000        1.34770000000000        0.91850000000000
H           -0.15450000000000       -0.18780000000000        1.92650000000000
H            1.53060000000000        1.31590000000000        2.77060000000000
H            1.29720000000000        2.44500000000000        1.43720000000000
H           -0.01560000000000        2.15520000000000        2.59000000000000
H            0.94960000000000       -2.13380000000000        1.39860000000000
H            2.78320000000000       -3.34480000000000        0.29400000000000
H            4.31670000000000       -2.15680000000000       -1.25220000000000
H            3.99910000000000        0.26470000000000       -1.68590000000000
H            2.17640000000000        1.49480000000000       -0.59550000000000
35
 energy: -43.877111351822 gnorm: 0.031129702523 xtb: 6.7.1 (edcfbbe)
C           -3.44696432102533       -0.86589625617041        1.10128581405221
C           -2.20436643744911       -1.33044456062112        0.34298853329461
C           -1.54655594041352       -0.24266575327470       -0.46804519728060
C           -1.55789509003855       -0.29326140636427       -1.82282107646189
C           -1.03002561824859        0.75368033141850       -2.61237867502153
C           -0.61767067810779        1.96218108264630       -2.00783878575010
C           -0.56729930156661        2.06270236769668       -0.66303727860180
C           -0.92084212119291        0.93201343477304        0.26686515755818
C            0.26316328049007        0.49688037312618        1.19394557355231
C            0.79608659132607        1.67366759547015        2.02230680524939
C            1.38728199514112       -0.22214514025044        0.47205885068402
C            1.59539074373309       -1.58000801772513        0.71000701515800
C            2.63456412023393       -2.26664216933675        0.10081329641205
C            3.49254612476569       -1.60487330850479       -0.76047558780571
C            3.30693318631100       -0.25343670244054       -1.00028439703468
C            2.26579627906689        0.43114641790455       -0.38880266499885
H           -3.92880642772100       -1.71243851442299        1.59215490167866
H           -4.16803196480508       -0.41530007636573        0.41964302157132
H           -3.19591747470509       -0.13447160560746        1.86837015932122
H           -1.49156553203104       -1.75325065552785        1.05648357007071
H           -2.49755768407792       -2.14499730072988       -0.32838141510868
H           -2.00113963487029       -1.12950024697892       -2.34717205752180
H           -0.98532866553090        0.64576401989898       -3.68611355558887
H           -0.37327760223835        2.80003535158068       -2.64653964885473
H           -0.30242749489834        3.00517804490540       -0.20064423544498
H           -1.68666846842147        1.33053682178339        0.95031821008855
H           -0.16353854650524       -0.21187566062862        1.91452622625408
H            1.52371957022250        1.30728846823741        2.74779512959397
H            1.28906840057966        2.42994445980041        1.41402746933866
H           -0.01611093170895        2.15101314107068        2.57225256515005
H            0.94705290315774       -2.11684748541167        1.39090874487722
H            2.77442359844234       -3.32160297144260        0.29896110390787
H            4.30198471265938       -2.13966834064020       -1.24100629253094
H            3.97704536700260        0.27088813169793       -1.66909185529180
H            2.14703306242406        1.48620613043380       -0.59297942451619
35
 energy: -43.879051717365 gnorm: 0.007665066868 xtb: 6.7.1 (edcfbbe)
C           -3.43637896824440       -0.85575991608468        1.09636372859941
C           -2.18806009605895       -1.32532411347226        0.34276212216724
C           -1.53416766517489       -0.23556536063416       -0.45759028237553
C           -1.53092536863940       -0.28558550146706       -1.81816607076190
C           -1.02697830857457        0.74737695394636       -2.61348581431452
C           -0.60218049505306        1.93209312896451       -2.00211534077985
C           -0.55963190463258        2.04338777457965       -0.65253214422138
C           -0.92629315047608        0.93024870318176        0.26702505369806
C            0.25612881170134        0.48940928161700        1.19914330897422
C            0.79533141034454        1.66567879498940        2.01616869191436
C            1.36973603503476       -0.22085490056741        0.47092886280306
C            1.58146711894648       -1.57429907406737        0.70454081100947
C            2.61791089538941       -2.25583249934489        0.09561741296293
C            3.47352475305016       -1.59076576159790       -0.76256402409304
C            3.27693826115269       -0.24276407345601       -1.00328691476369
C            2.23601129144928        0.43477275092963       -0.39382396630131
H           -3.91503517104235       -1.70270997670315        1.58334216689048
H           -4.14973256819343       -0.40708114198504        0.40901136415918
H           -3.18647538445731       -0.12458781962067        1.86090224037104
H           -1.48170077335393       -1.74215038630160        1.06537913259189
H           -2.47481184006198       -2.13095720681601       -0.33782506232564
H           -1.95730484237770       -1.14230640592868       -2.32435388422294
H           -1.01626816565406        0.65124214304221       -3.68785347630423
H           -0.32578926359347        2.76767404332651       -2.63101942284120
H           -0.28064177640516        2.97809262077838       -0.18882582045402
H           -1.67729169007229        1.32315766414307        0.97400655601693
H           -0.17115352092772       -0.22251742364777        1.91312436389866
H            1.52457952940586        1.30229512201975        2.73764106590573
H            1.28353464393986        2.40595249909934        1.39030364913003
H           -0.01420375280500        2.14944225035565        2.55945710986085
H            0.93425286840887       -2.10918027001824        1.38515177196026
H            2.76470192643053       -3.30658834029831        0.30022616810949
H            4.28990005523839       -2.11831333149206       -1.23445194408133
H            3.94804964822153        0.28624668387218       -1.66419914440415
H            2.10305745708480        1.48587308865796       -0.59890226877878
35
 energy: -43.879462091070 gnorm: 0.004381796932 xtb: 6.7.1 (edcfbbe)
C           -3.43035829482061       -0.85229170953917        1.09177102516086
C           -2.17934697392911       -1.32717945550932        0.34419325011195
C           -1.52696632573271       -0.23744188748685       -0.45317028075540
C           -1.51440412024885       -0.29369543540324       -1.81508168183939
C           -1.02082003230656        0.74246806471398       -2.61250396086770
C           -0.58021828081638        1.92141901831303       -1.99939794345903
C           -0.54743270634790        2.03775737543706       -0.64868686484075
C           -0.93213930949816        0.93204703183385        0.27047332884647
C            0.24943427956542        0.48628647124891        1.20828682133416
C            0.79460294122019        1.66384220550214        2.01765245662561
C            1.35469422615353       -0.22261770393510        0.47179705540362
C            1.57093827353151       -1.57601269173901        0.70271376915448
C            2.61039827188018       -2.25145810480778        0.09195536631605
C            3.46215840811098       -1.57978463771631       -0.76622568317725
C            3.25576548083110       -0.23299904949688       -1.00933210867749
C            2.21158171838255        0.43830227735538       -0.39922067259090
H           -3.91261973786363       -1.69620794151634        1.57964114084524
H           -4.13763078128815       -0.40263744297359        0.39888846616801
H           -3.17908893295782       -0.11897880720988        1.85379040949482
H           -1.47712203381782       -1.74147468849388        1.07182959494540
H           -2.46315969553559       -2.13296909003655       -0.33543259594130
H           -1.93246462273502       -1.16180494988725       -2.31014819837392
H           -1.02401061357264        0.65118323252251       -3.68706199777482
H           -0.28688699502413        2.75674820643549       -2.62194062902516
H           -0.25883025699337        2.97029007137339       -0.18775595040728
H           -1.68023112895906        1.32699348724348        0.97992427619391
H           -0.18066687144986       -0.22397924511087        1.92159630506694
H            1.52467331513467        1.30107594925072        2.73811211488658
H            1.28528427859364        2.39510821469198        1.38313338945732
H           -0.01056374066006        2.15634659789865        2.55949304803125
H            0.92617500717380       -2.11210149578253        1.38508626841752
H            2.76072355218589       -3.30198912419663        0.29420706419801
H            4.28108817955871       -2.10189907860354       -1.23873533903872
H            3.92041599657511        0.29958437253916       -1.67384985246367
H            2.06712752566042        1.48786996308509       -0.60590139142582
35
 energy: -43.879694444977 gnorm: 0.003308055648 xtb: 6.7.1 (edcfbbe)
C           -3.42506526526310       -0.84972899351819        1.08703696688876
C           -2.17169191603410       -1.33031016126878        0.34666770397839
C           -1.52156723165904       -0.23980150125531       -0.44987096096279
C           -1.49825769352281       -0.30372666545842       -1.81190527733522
C           -1.00518291521344        0.73364353547173       -2.60949803713306
C           -0.55791848946432        1.91162808695099       -1.99757604550757
C           -0.53589056274713        2.03367147298021       -0.64700099637223
C           -0.93731616348624        0.93484535381860        0.27435540265203
C            0.24258243984474        0.48581220423393        1.22010135737495
C            0.79515312816715        1.66245017100400        2.02446574853482
C            1.34120835188208       -0.22424803809031        0.47823866362117
C            1.56283560139232       -1.57813053438740        0.70467593416007
C            2.60264532392986       -2.24683325902707        0.08540913854775
C            3.44615935117767       -1.56762994873404       -0.77610011451299
C            3.22813634954732       -0.22257970602417       -1.02158585828058
C            2.18437927408910        0.44203893498484       -0.40366898195243
H           -3.91378963379220       -1.68927790796649        1.57603545867752
H           -4.12573883654050       -0.39837345830500        0.38823550154824
H           -3.17280564227744       -0.11418790975262        1.84701395589509
H           -1.47324710650312       -1.74290877438841        1.07868619352515
H           -2.45265686225980       -2.13898168889969       -0.32998510409139
H           -1.90633278924162       -1.18097311331306       -2.29863424110189
H           -1.01613618128730        0.64518180885505       -3.68354771257785
H           -0.24400051011422        2.74291244290379       -2.61589422181284
H           -0.23455165017476        2.96443478939277       -0.19052387407211
H           -1.68745451374622        1.33493209749181        0.97715807572938
H           -0.19231431611178       -0.22028897855217        1.93435163027933
H            1.52308047597454        1.29855168940622        2.74688123797489
H            1.29245373927409        2.38524806367557        1.38517426178700
H           -0.00563534646715        2.16566560146412        2.56343353383267
H            0.92158347598061       -2.11739873116048        1.38850209155485
H            2.75942945990275       -3.29720398123971        0.28472035052954
H            4.26922239884958       -2.08251189115525       -1.24944182449162
H            3.88303382155794        0.31451713692615       -1.69272347410176
H            2.02575043433693        1.48936185293697       -0.61308648278590
35
 energy: -43.879795607531 gnorm: 0.002999825974 xtb: 6.7.1 (edcfbbe)
C           -3.42337416526104       -0.84816109918201        1.08489262126077
C           -2.16871854570392       -1.33131196240013        0.34901269948243
C           -1.51741389214238       -0.24158989819625       -0.44828128000583
C           -1.48787206486369       -0.30988630203130       -1.80968007914984
C           -0.99032636665203        0.72608464863471       -2.60741806415848
C           -0.54372329654001        1.90546467785389       -1.99729500062545
C           -0.52852734586219        2.03152286830424       -0.64719090184417
C           -0.93751263822350        0.93644743125995        0.27601336514208
C            0.23889199079966        0.48699568311586        1.22757924388472
C            0.79486194112994        1.66201262017398        2.03162011125956
C            1.33458068422272       -0.22480385860850        0.48332094071392
C            1.56067446341532       -1.57829026336263        0.70797849762381
C            2.59937957880582       -2.24301596145279        0.08149664277615
C            3.43498029564674       -1.56059937306483       -0.78521778646391
C            3.21001074799169       -0.21690384502703       -1.03168089031877
C            2.16867232877656        0.44389094304737       -0.40586562652038
H           -3.91652462663864       -1.68553749858521        1.57340345323559
H           -4.12049852441131       -0.39556366148841        0.38318531620248
H           -3.17153184501368       -0.11237186697390        1.84498181883366
H           -1.47191373696671       -1.74335567827456        1.08288021485049
H           -2.44814975925263       -2.14233590108582       -0.32599229922935
H           -1.89223390571989       -1.18885113855532       -2.29466268506157
H           -0.99844631240777        0.63592937384167       -3.68092539622987
H           -0.22362306975885        2.73352369248388       -2.61543979959011
H           -0.22469311784732        2.96268860883791       -0.19298038732420
H           -1.69154728454625        1.34006976942022        0.97151656752517
H           -0.19966841319364       -0.21645368291589        1.94232532460022
H            1.51826447012472        1.29512562030222        2.75755417855847
H            1.29939766157248        2.38090639518768        1.39355183531419
H           -0.00424990612325        2.17143197932447        2.56744430461328
H            0.92435139562510       -2.11974228852085        1.39500255211879
H            2.76047324191516       -3.29337979738336        0.27807673432522
H            4.25722411608091       -2.07218362235513       -1.26359780086542
H            3.85582627978454        0.32209321383303       -1.71037931330021
H            2.00305962123784        1.48995017384310       -0.61512911163419
35
 energy: -43.879890292247 gnorm: 0.002243947964 xtb: 6.7.1 (edcfbbe)
C           -3.42338974033879       -0.84608200899256        1.08397063877815
C           -2.16806671712488       -1.33083257056684        0.35145440045334
C           -1.51383650771804       -0.24292564178813       -0.44715901759316
C           -1.47881461848241       -0.31481788567465       -1.80757848695129
C           -0.97445864916807        0.71830477113902       -2.60566687853499
C           -0.53289616047209        1.90045763011325       -1.99739665440917
C           -0.52355133111641        2.03012582942363       -0.64776269811741
C           -0.93565925197566        0.93737713386818        0.27696380420148
C            0.23611215593989        0.48840123686596        1.23311363758028
C            0.79336202833876        1.66123128003647        2.03942000073626
C            1.33145563954003       -0.22446324334452        0.48856803304745
C            1.56240702425968       -1.57682426904392        0.71313413655265
C            2.59810512961871       -2.23891048950091        0.07832166376739
C            3.42389705369513       -1.55569415166213       -0.79678536159598
C            3.19384226400623       -0.21307400483629       -1.04302803911704
C            2.15725154331867        0.44536952177905       -0.40729645822123
H           -3.92017773130597       -1.68254053515432        1.57058118181573
H           -4.11790171397604       -0.39187204920057        0.38071778663747
H           -3.17260613388058       -0.11138510025121        1.84553813544039
H           -1.47208707543045       -1.74268479471056        1.08626977104945
H           -2.44656863662225       -2.14349144704810       -0.32281043378613
H           -1.88108172576838       -1.19331787459483       -2.29381023222844
H           -0.97332967171645        0.62352778976894       -3.67880416706177
H           -0.20969898385881        2.72504120860835       -2.61748215554903
H           -0.22149153280543        2.96248648355047       -0.19452367643998
H           -1.69426570879014        1.34374391047536        0.96554633744093
H           -0.20536714818563       -0.21370767346994        1.94756697643923
H            1.50985219248323        1.29020877632741        2.77061683466636
H            1.30663474360863        2.37756903035229        1.40534995338770
H           -0.00585608504364        2.17533925297853        2.57054947394389
H            0.93273614972812       -2.12000798591572        1.40501478546251
H            2.76425482923643       -3.28874306830235        0.27396902864022
H            4.24326848468536       -2.06555583829003       -1.28212225838328
H            3.83072484787652        0.32693970039477       -1.72935371621264
H            1.98730103744531        1.49060707666616       -0.61498634584031
35
 energy: -43.879979148368 gnorm: 0.001713343418 xtb: 6.7.1 (edcfbbe)
C           -3.42447475226509       -0.84281273223701        1.08344351121388
C           -2.16869132650432       -1.32944037452595        0.35393930251445
C           -1.51014965366909       -0.24411562418548       -0.44553415621391
C           -1.46753041120973       -0.32008631004876       -1.80498707856633
C           -0.95527891113616        0.70916909522218       -2.60342993450343
C           -0.52086916991245        1.89459150620066       -1.99681064634471
C           -0.51909161140711        2.02857858371397       -0.64746686111959
C           -0.93343217420586        0.93769835804883        0.27838478569604
C            0.23336512939190        0.48943142286377        1.23798556061699
C            0.78973074633441        1.66010309881493        2.04818569587184
C            1.32970731492275       -0.22295256635456        0.49336160562052
C            1.56679594015108       -1.57349322358201        0.71973017105716
C            2.59787287060580       -2.23384033176270        0.07551960763059
C            3.41126933213788       -1.55157128390898       -0.81160292754289
C            3.17681211598384       -0.20973024509091       -1.05683451393576
C            2.14672231762092        0.44740977016107       -0.40967791497480
H           -3.92476708391914       -1.67905300282062        1.56693686462004
H           -4.11619957235422       -0.38602379982580        0.37917543669990
H           -3.17483000104139       -0.11025677891315        1.84741095009903
H           -1.47376769655153       -1.74125746295151        1.08990476045682
H           -2.44670719176472       -2.14271273312076       -0.32026358534059
H           -1.86775161313690       -1.19817249300573       -2.29361450890484
H           -0.94121699195135        0.60789129417408       -3.67634974240934
H           -0.19639070215907        2.71629557382013       -2.61967477767090
H           -0.22202105787868        2.96281621583649       -0.19444041151149
H           -1.69617891017610        1.34597529609789        0.96168991511291
H           -0.20999104067554       -0.21318034273948        1.95084629805466
H            1.49736056528576        1.28502860906946        2.78621146499116
H            1.31289941548401        2.37368113622273        1.41892671017918
H           -0.01120482961118        2.17856072356864        2.57235322518401
H            0.94615251833581       -2.11757738319444        1.41903513999832
H            2.76973278625079       -3.28262947394234        0.27171625995253
H            4.22462070475538       -2.06131058977630       -1.30729621934633
H            3.80389400237978        0.33049368006911       -1.75178306626372
H            1.97370894189014        1.49229238810288       -0.61489092092254
35
 energy: -43.880065861606 gnorm: 0.001985675251 xtb: 6.7.1 (edcfbbe)
C           -3.42693421226498       -0.83703485782300        1.08272163377141
C           -2.17079684605283       -1.32741198549638        0.35666541752059
C           -1.50488135086363       -0.24616629433475       -0.44244132790849
C           -1.44788612404403       -0.32869462012171       -1.80080789049898
C           -0.92608335548255        0.69584558783558       -2.59902324524669
C           -0.50382395341238        1.88617112908872       -1.99407691900821
C           -0.51550545103785        2.02680733540744       -0.64510541120825
C           -0.93151913014648        0.93729257217699        0.28139117773713
C            0.23027204239860        0.48995656501167        1.24404316090383
C            0.78215044350231        1.65899727741064        2.05991869244313
C            1.32910343513754       -0.21904923979520        0.49882750350039
C            1.57504241719390       -1.56689419342191        0.72920591709407
C            2.59776963981896       -2.22668622757095        0.07143595991202
C            3.39249057256641       -1.54747539713565       -0.83487709191627
C            3.15349279293485       -0.20615939648559       -1.07798418509864
C            2.13407787616811        0.45117672799986       -0.41461656683479
H           -3.93243633648083       -1.67300887072961        1.56125526109216
H           -4.11417841955104       -0.37513906671677        0.37744808423523
H           -3.17773057830576       -0.10828495654151        1.85036145676133
H           -1.47847118501156       -1.74017059216720        1.09474374983518
H           -2.44921371898473       -2.14003816796141       -0.31797250687223
H           -1.84455883647640       -1.20751716212751       -2.29214156721069
H           -0.89336765955977        0.58562878438479       -3.67134423288094
H           -0.17662850396937        2.70510333597487       -2.61998060594889
H           -0.22692453121266        2.96385299366079       -0.19198718985916
H           -1.69801075014079        1.34640271528679        0.96081581688160
H           -0.21364760903724       -0.21587601409258        1.95331232843134
H            1.47720974921710        1.28081870231340        2.80814434999080
H            1.31768674190226        2.36852974012259        1.43642959785759
H           -0.02313220125156        2.18232904363190        2.57236716347905
H            0.96791506943488       -2.11045171809074        1.44068005300405
H            2.77735660921612       -3.27354751854421        0.27051628413039
H            4.19523511048966       -2.05879739865482       -1.34630305781795
H            3.76769658886888        0.33324069554999       -1.78469685464795
H            1.95833166443756        1.49605047195588       -0.61682495562459
35
 energy: -43.880110417232 gnorm: 0.001486165062 xtb: 6.7.1 (edcfbbe)
C           -3.42881128619493       -0.83349687145074        1.08153997378780
C           -2.17255854646692       -1.32736893838819        0.35734024541466
C           -1.50206526207604       -0.24811762573540       -0.43997638514798
C           -1.43405360063884       -0.33484303693850       -1.79779128359202
C           -0.90834194825824        0.68833176809007       -2.59480119356933
C           -0.49426240814523        1.88167926945468       -1.99021557913560
C           -0.51623223281858        2.02621573964164       -0.64172057216182
C           -0.93248406637939        0.93637099551064        0.28433752402505
C            0.23024114052444        0.49036963835408        1.24711469370127
C            0.77734024598581        1.66046520067274        2.06467784034389
C            1.32983913754074       -0.21554003821236        0.50024027332838
C            1.57924755553621       -1.56251736703773        0.73243289321517
C            2.59661708420286       -2.22372709588048        0.06822780186102
C            3.38232856596254       -1.54688067657248       -0.84729649076890
C            3.14256194259329       -0.20546917425465       -1.08922996957735
C            2.12937960337005        0.45375933205882       -0.41846473553159
H           -3.93804900821522       -1.66863366728753        1.55741602632291
H           -4.11279488825426       -0.36789874541172        0.37549636673321
H           -3.17871267446084       -0.10699401199630        1.85097413640143
H           -1.48298905159393       -1.74208346209414        1.09704167721078
H           -2.45210265426402       -2.13879874119442       -0.31781127894109
H           -1.82580623504367       -1.21639144737585       -2.28895642812767
H           -0.86791611540421        0.57521564760917       -3.66627065505108
H           -0.16693082186286        2.70097411990863       -2.61570997167136
H           -0.23426852930882        2.96525574175770       -0.18876687140356
H           -1.69912619037895        1.34397454685612        0.96430739319571
H           -0.21237285562657       -0.21825576937191        1.95430550804622
H            1.46730057357811        1.28399394148199        2.81788847342757
H            1.31643778385454        2.36812008859656        1.44250998478454
H           -0.03123152147932        2.18492966173842        2.57058980088174
H            0.97837294990360       -2.10409168150990        1.45034912105754
H            2.77829082981230       -3.26981511855678        0.26874073498685
H            4.17820050193488       -2.06031119697933       -1.36686070147609
H            3.75097177048059        0.33240128490738       -1.80190113247289
H            1.95408021159165        1.49897768961017       -0.61965722009909
35
 energy: -43.880150733504 gnorm: 0.000959367536 xtb: 6.7.1 (edcfbbe)
C           -3.43123791710775       -0.83046993366846        1.07973213628024
C           -2.17480460358444       -1.32829177928891        0.35782716257954
C           -1.49844980533097       -0.25124636087874       -0.43692914394290
C           -1.41790695965065       -0.34213328724456       -1.79406179172032
C           -0.89107832324870        0.68163546299140       -2.58940638941956
C           -0.48936371618915        1.87928492819865       -1.98454484394261
C           -0.52233945570328        2.02698053605311       -0.63673093038732
C           -0.93472067950600        0.93495718065313        0.28826150965586
C            0.23192173692227        0.49129027834013        1.24978640845100
C            0.77382310282176        1.66453273409981        2.06616619233625
C            1.33165066270673       -0.21158365356331        0.50083073612711
C            1.58151801382357       -1.55869553110791        0.73324354200809
C            2.59354512343285       -2.22269405771691        0.06377714642112
C            3.37334492252794       -1.54834314869370       -0.85851503826176
C            3.13539488355051       -0.20620945080354       -1.09851632786446
C            2.12823755957438        0.45623650024404       -0.42157554368865
H           -3.94504755295081       -1.66429320228583        1.55289304530028
H           -4.11135426462322       -0.36083997044834        0.37257240228166
H           -3.18000778915129       -0.10629055846998        1.85095976272763
H           -1.48877001655326       -1.74618141599541        1.09921110874890
H           -2.45592457060117       -2.13813362636564       -0.31836845600557
H           -1.80397511383134       -1.22637382113759       -2.28456782456861
H           -0.84251973947916        0.56659403123599       -3.66007423903320
H           -0.16041177332624        2.69942341082805       -2.60870099862158