      -----------------------------------------------------------      
     |                   =====================                   |     
     |                           x T B                           |     
     |                   =====================                   |     
     |                         S. Grimme                         |     
     |          Mulliken Center for Theoretical Chemistry        |     
     |                    University of Bonn                     |     
      -----------------------------------------------------------      

   * xtb version 6.7.1 (edcfbbe) compiled by 'conda@c0858423619e' on 2025-09-04

   xtb is free software: you can redistribute it and/or modify it under
   the terms of the GNU Lesser General Public License as published by
   the Free Software Foundation, either version 3 of the License, or
   (at your option) any later version.
   
   xtb is distributed in the hope that it will be useful,
   but WITHOUT ANY WARRANTY; without even the implied warranty of
   MERCHANTABILITY or FITNESS FOR A PARTICULAR PURPOSE.  See the
   GNU Lesser General Public License for more details.
   
   Cite this work as:
   * C. Bannwarth, E. Caldeweyher, S. Ehlert, A. Hansen, P. Pracht,
     J. Seibert, S. Spicher, S. Grimme, WIREs Comput. Mol. Sci., 2020, 11,
     e01493. DOI: 10.1002/wcms.1493
   
   for GFN2-xTB:
   * C. Bannwarth, S. Ehlert and S. Grimme., J. Chem. Theory Comput., 2019,
     15, 1652-1671. DOI: 10.1021/acs.jctc.8b01176
   for GFN1-xTB:
   * S. Grimme, C. Bannwarth, P. Shushkov, J. Chem. Theory Comput., 2017,
     13, 1989-2009. DOI: 10.1021/acs.jctc.7b00118
   for GFN0-xTB:
   * P. Pracht, E. Caldeweyher, S. Ehlert, S. Grimme, ChemRxiv, 2019, preprint.
     DOI: 10.26434/chemrxiv.8326202.v1
   for GFN-FF:
   * S. Spicher and S. Grimme, Angew. Chem. Int. Ed., 2020, 59, 15665-15673.
     DOI: 10.1002/anie.202004239
   
   for ALPB and GBSA implicit solvation:
   * S. Ehlert, M. Stahn, S. Spicher, S. Grimme, J. Chem. Theory Comput.,
     2021, 17, 4250-4261. DOI: 10.1021/acs.jctc.1c00471
   
   for ddCOSMO and CPCM-X implicit solvation:
   * M. Stahn, S. Ehlert, S. Grimme, J. Phys. Chem. A,
     2023, XX, XXXX-XXXX. DOI: 10.1021/acs.jpca.3c04382
   
   for DFT-D4:
   * E. Caldeweyher, C. Bannwarth and S. Grimme, J. Chem. Phys., 2017,
     147, 034112. DOI: 10.1063/1.4993215
   * E. Caldeweyher, S. Ehlert, A. Hansen, H. Neugebauer, S. Spicher,
     C. Bannwarth and S. Grimme, J. Chem. Phys., 2019, 150, 154122.
     DOI: 10.1063/1.5090222
   * E. Caldeweyher, J.-M. Mewes, S. Ehlert and S. Grimme, Phys. Chem. Chem. Phys.
     2020, 22, 8499-8512. DOI: 10.1039/D0CP00502A
   
   for sTDA-xTB:
   * S. Grimme and C. Bannwarth, J. Chem. Phys., 2016, 145, 054103.
     DOI: 10.1063/1.4959605
   
   in the mass-spec context:
   * V. Asgeirsson, C. Bauer and S. Grimme, Chem. Sci., 2017, 8, 4879.
     DOI: 10.1039/c7sc00601b
   * J. Koopman and S. Grimme, ACS Omega 2019, 4, 12, 15120-15133.
     DOI: 10.1021/acsomega.9b02011
   
   for metadynamics refer to:
   * S. Grimme, J. Chem. Theory Comput., 2019, 155, 2847-2862
     DOI: 10.1021/acs.jctc.9b00143
   
   for SPH calculations refer to:
   * S. Spicher and S. Grimme, J. Chem. Theory Comput., 2021, 17, 1701-1714
     DOI: 10.1021/acs.jctc.0c01306
   
   for ONIOM refer to:
   * C. Plett, A. Katbashev, S. Ehlert, S. Grimme, M. Bursch,
     Phys. Chem. Chem. Phys., 2023, 25, 17860-17868. DOI: 10.1039/D3CP02178E
   
   for DIPRO refer to:
   * J. Kohn, N. Gildemeister, S. Grimme, D. Fazzi, A. Hansen,
     J. Chem. Phys., 2023, just accepted.
   
   for PTB refer to:
   * S. Grimme, M. Mueller, A. Hansen, J. Chem. Phys., 2023, 158, 124111.
     DOI: 10.1063/5.0137838
   
   with help from (in alphabetical order)
   P. Atkinson, C. Bannwarth, F. Bohle, G. Brandenburg, E. Caldeweyher
   M. Checinski, S. Dohm, S. Ehlert, S. Ehrlich, I. Gerasimov, C. Hölzer
   A. Katbashev, J. Kohn, J. Koopman, C. Lavigne, S. Lehtola, F. März, M. Müller,
   F. Musil, H. Neugebauer, J. Pisarek, C. Plett, P. Pracht, F. Pultar,
   J. Seibert, P. Shushkov, S. Spicher, M. Stahn, M. Steiner, T. Strunk,
   J. Stückrath, T. Rose, and J. Unsleber
   
 * started run on 2025/09/15 at 14:21:06.112     
   ID    Z sym.   atoms
    1    6 C      1-16
    2    1 H      17-35

           -------------------------------------------------
          |                Calculation Setup                |
           -------------------------------------------------

          program call               : /home/paufv/miniforge3/envs/htvs/bin/xtb gfn_opt.xyz --opt normal --parallel 4 --chrg 0 --uhf 0 --gfn2 --input xtb.inp
          coordinate file            : gfn_opt.xyz
          omp threads                :                     4

########################################################################
[WARNING] Please study the warnings concerning your input carefully
-3- set_opt: the key 'uhf' is not recognized by opt
-2- set_opt: the key 'charge' is not recognized by opt
-1- set_opt: the key 'method' is not recognized by opt
########################################################################

           -------------------------------------------------
          |                 G F N 2 - x T B                 |
           -------------------------------------------------

        Reference                      10.1021/acs.jctc.8b01176
      * Hamiltonian:
        H0-scaling (s, p, d)           1.850000    2.230000    2.230000
        zeta-weighting                 0.500000
      * Dispersion:
        s8                             2.700000
        a1                             0.520000
        a2                             5.000000
        s9                             5.000000
      * Repulsion:
        kExp                           1.500000    1.000000
        rExp                           1.000000
      * Coulomb:
        alpha                          2.000000
        third order                    shell-resolved
        anisotropic                    true
        a3                             3.000000
        a5                             4.000000
        cn-shift                       1.200000
        cn-exp                         4.000000
        max-rad                        5.000000

q/qsh data taken from xtbrestart
CAMM data taken from xtbrestart

          ...................................................
          :                      SETUP                      :
          :.................................................:
          :  # basis functions                  83          :
          :  # atomic orbitals                  83          :
          :  # shells                           51          :
          :  # electrons                        83          :
          :  max. iterations                   250          :
          :  Hamiltonian                  GFN2-xTB          :
          :  restarted?                       true          :
          :  GBSA solvation                  false          :
          :  PC potential                    false          :
          :  electronic temp.          300.0000000     K    :
          :  accuracy                    1.0000000          :
          :  -> integral cutoff          0.2500000E+02      :
          :  -> integral neglect         0.1000000E-07      :
          :  -> SCF convergence          0.1000000E-05 Eh   :
          :  -> wf. convergence          0.1000000E-03 e    :
          :  Broyden damping             0.4000000          :
          :  net charge                          0          :
          :  unpaired electrons                  0          :
          ...................................................

 iter      E             dE          RMSdq      gap      omega  full diag
   1    -44.6041569 -0.446042E+02  0.481E+00    2.04       0.0  T
   2    -44.6076613 -0.350440E-02  0.284E+00    2.10       1.0  T
   3    -44.5936589  0.140024E-01  0.655E-01    2.13       1.0  T
   4    -44.6098018 -0.161428E-01  0.135E-01    2.16       1.0  T
   5    -44.6099630 -0.161235E-03  0.761E-02    2.15       1.0  T
   6    -44.6099963 -0.332579E-04  0.275E-02    2.15       1.0  T
   7    -44.6100094 -0.131048E-04  0.825E-03    2.15       2.0  T
   8    -44.6100108 -0.144399E-05  0.396E-03    2.15       4.3  T
   9    -44.6100110 -0.162029E-06  0.139E-03    2.15      12.2  T
  10    -44.6100110 -0.407114E-07  0.518E-04    2.15      32.7  T
  11    -44.6100110 -0.410002E-08  0.244E-04    2.15      69.3  T

   *** convergence criteria satisfied after 11 iterations ***

         #    Occupation            Energy/Eh            Energy/eV
      -------------------------------------------------------------
         1        2.0000           -0.6385698             -17.3764
       ...           ...                  ...                  ...
        36        2.0000           -0.4192200             -11.4076
        37        2.0000           -0.4098701             -11.1531
        38        2.0000           -0.4074090             -11.0862
        39        2.0000           -0.3980764             -10.8322
        40        2.0000           -0.3939647             -10.7203
        41        2.0000           -0.3890700             -10.5871
        42        1.0000           -0.3009041              -8.1880 (HOMO)
        43                         -0.2219392              -6.0393 (LUMO)
        44                         -0.2216127              -6.0304
        45                         -0.2015413              -5.4842
        46                         -0.1323032              -3.6002
        47                         -0.0969038              -2.6369
       ...                                ...                  ...
        83                          0.6324215              17.2091
      -------------------------------------------------------------
                  HL-Gap            0.0789649 Eh            2.1487 eV
             Fermi-level           -0.3032043 Eh           -8.2506 eV

 SCC (total)                   0 d,  0 h,  0 min,  0.024 sec
 SCC setup                      ...        0 min,  0.000 sec (  0.394%)
 Dispersion                     ...        0 min,  0.000 sec (  1.051%)
 classical contributions        ...        0 min,  0.000 sec (  0.163%)
 integral evaluation            ...        0 min,  0.001 sec (  5.568%)
 iterations                     ...        0 min,  0.019 sec ( 78.556%)
 molecular gradient             ...        0 min,  0.003 sec ( 13.249%)
 printout                       ...        0 min,  0.000 sec (  0.981%)

         :::::::::::::::::::::::::::::::::::::::::::::::::::::
         ::                     SUMMARY                     ::
         :::::::::::::::::::::::::::::::::::::::::::::::::::::
         :: total energy             -43.871235415859 Eh    ::
         :: gradient norm              0.066963090876 Eh/a0 ::
         :: HOMO-LUMO gap              2.148744741634 eV    ::
         ::.................................................::
         :: SCC energy               -44.609298532520 Eh    ::
         :: -> isotropic ES            0.004035747767 Eh    ::
         :: -> anisotropic ES          0.009737051153 Eh    ::
         :: -> anisotropic XC          0.029716484411 Eh    ::
         :: -> dispersion             -0.036227722771 Eh    ::
         :: repulsion energy           0.738063116661 Eh    ::
         :: add. restraining           0.000000000000 Eh    ::
         :: total charge              -0.000000000000 e     ::
         :::::::::::::::::::::::::::::::::::::::::::::::::::::

      ----------------------------------------------------------- 
     |                   =====================                   |
     |                        A N C O P T                        |
     |                   =====================                   |
     |               Approximate Normal Coordinate               |
     |                Rational Function Optimizer                |
      ----------------------------------------------------------- 
      ----------------------------------------------------------- 
     |                   =====================                   |
     |                        A N C O P T                        |
     |                   =====================                   |
     |               Approximate Normal Coordinate               |
     |                Rational Function Optimizer                |
      ----------------------------------------------------------- 

          ...................................................
          :                      SETUP                      :
          :.................................................:
          :   optimization level            normal          :
          :   max. optcycles                   200          :
          :   ANC micro-cycles                  20          :
          :   degrees of freedom                99          :
          :.................................................:
          :   RF solver                   davidson          :
          :   write xtbopt.log                true          :
          :   linear?                        false          :
          :   energy convergence         0.5000000E-05 Eh   :
          :   grad. convergence          0.1000000E-02 Eh/α :
          :   maxmium RF displ.          1.0000000          :
          :   Hlow (freq-cutoff)         0.1000000E-01      :
          :   Hmax (freq-cutoff)         5.0000000          :
          :   S6 in model hess.         20.0000000          :
          ...................................................

generating ANC from exact Hessian ...
Using Lindh-Hessian (1995)
 Shifting diagonal of input Hessian by    9.5113729647080553E-003
 Lowest  eigenvalues of input Hessian
    0.000000    0.000000    0.000000    0.000000    0.000000    0.000000
    0.010000    0.010179    0.010824    0.011610    0.012278    0.012718
    0.013813    0.015107    0.015360    0.017429    0.017849    0.020590
 Highest eigenvalues
    1.692483    1.821904    1.828468    1.904562    1.927692    1.939759


........................................................................
.............................. CYCLE    1 ..............................
........................................................................

 iter      E             dE          RMSdq      gap      omega  full diag
   1    -44.6100110 -0.446100E+02  0.914E-05    2.15       0.0  T
   2    -44.6100110 -0.400178E-10  0.572E-05    2.15     295.4  T
   3    -44.6100110 -0.116387E-10  0.386E-05    2.15     438.1  T
     SCC iter.                  ...        0 min,  0.003 sec
     gradient                   ...        0 min,  0.003 sec
 * total energy  :   -43.8712354 Eh     change       -0.4556640E-09 Eh
   gradient norm :     0.0669632 Eh/α   predicted     0.0000000E+00 (-100.00%)
   displ. norm   :     0.3390923 α      lambda       -0.1042043E-01
   maximum displ.:     0.1605003 α      in ANC's #16, #12, #19, ...

........................................................................
.............................. CYCLE    2 ..............................
........................................................................

 iter      E             dE          RMSdq      gap      omega  full diag
   1    -44.6483948 -0.446484E+02  0.192E-01    2.19       0.0  T
   2    -44.6484069 -0.121572E-04  0.117E-01    2.19       1.0  T
   3    -44.6483081  0.988627E-04  0.543E-02    2.18       1.0  T
   4    -44.6484203 -0.112187E-03  0.681E-03    2.19       2.5  T
   5    -44.6484213 -0.106308E-05  0.247E-03    2.19       6.8  T
   6    -44.6484214 -0.214135E-07  0.116E-03    2.19      14.6  T
   7    -44.6484214 -0.937875E-08  0.565E-04    2.19      29.9  T
   8    -44.6484214 -0.819982E-08  0.163E-04    2.19     103.8  T
     SCC iter.                  ...        0 min,  0.007 sec
     gradient                   ...        0 min,  0.003 sec
 * total energy  :   -43.8784984 Eh     change       -0.7262998E-02 Eh
   gradient norm :     0.0294204 Eh/α   predicted    -0.5812076E-02 ( -19.98%)
   displ. norm   :     0.3324575 α      lambda       -0.3449828E-02
   maximum displ.:     0.1362777 α      in ANC's #16, #12, #5, ...

........................................................................
.............................. CYCLE    3 ..............................
........................................................................

 iter      E             dE          RMSdq      gap      omega  full diag
   1    -44.6672241 -0.446672E+02  0.136E-01    2.19       0.0  T
   2    -44.6672299 -0.576997E-05  0.833E-02    2.20       1.0  T
   3    -44.6671597  0.701293E-04  0.460E-02    2.19       1.0  T
   4    -44.6672393 -0.796159E-04  0.557E-03    2.19       3.0  T
   5    -44.6672402 -0.809746E-06  0.186E-03    2.19       9.1  T
   6    -44.6672402 -0.182147E-07  0.101E-03    2.19      16.8  T
   7    -44.6672402 -0.159145E-07  0.377E-04    2.19      44.8  T
   8    -44.6672402 -0.251492E-08  0.128E-04    2.19     131.7  T
     SCC iter.                  ...        0 min,  0.007 sec
     gradient                   ...        0 min,  0.003 sec
 * total energy  :   -43.8805670 Eh     change       -0.2068568E-02 Eh
   gradient norm :     0.0071615 Eh/α   predicted    -0.1916320E-02 (  -7.36%)
   displ. norm   :     0.2219459 α      lambda       -0.6488250E-03
   maximum displ.:     0.1090386 α      in ANC's #5, #12, #2, ...

........................................................................
.............................. CYCLE    4 ..............................
........................................................................

 iter      E             dE          RMSdq      gap      omega  full diag
   1    -44.6675654 -0.446676E+02  0.713E-02    2.19       0.0  T
   2    -44.6675659 -0.464395E-06  0.432E-02    2.19       1.0  T
   3    -44.6675405  0.253529E-04  0.263E-02    2.19       1.0  T
   4    -44.6675691 -0.286288E-04  0.178E-03    2.19       9.5  T
   5    -44.6675692 -0.415437E-07  0.908E-04    2.19      18.6  T
   6    -44.6675692 -0.867673E-08  0.320E-04    2.19      52.8  T
     SCC iter.                  ...        0 min,  0.005 sec
     gradient                   ...        0 min,  0.003 sec
 * total energy  :   -43.8810294 Eh     change       -0.4623721E-03 Eh
   gradient norm :     0.0052296 Eh/α   predicted    -0.3403957E-03 ( -26.38%)
   displ. norm   :     0.2413770 α      lambda       -0.3812422E-03
   maximum displ.:     0.1346824 α      in ANC's #5, #2, #3, ...

........................................................................
.............................. CYCLE    5 ..............................
........................................................................

 iter      E             dE          RMSdq      gap      omega  full diag
   1    -44.6661275 -0.446661E+02  0.656E-02    2.18       0.0  T
   2    -44.6661281 -0.517258E-06  0.388E-02    2.18       1.0  T
   3    -44.6661175  0.105127E-04  0.166E-02    2.18       1.0  T
   4    -44.6661291 -0.115910E-04  0.148E-03    2.18      11.4  T
   5    -44.6661291 -0.124633E-07  0.809E-04    2.18      20.9  T
   6    -44.6661292 -0.107326E-07  0.271E-04    2.18      62.4  T
     SCC iter.                  ...        0 min,  0.005 sec
     gradient                   ...        0 min,  0.003 sec
 * total energy  :   -43.8812799 Eh     change       -0.2505055E-03 Eh
   gradient norm :     0.0040246 Eh/α   predicted    -0.2017276E-03 ( -19.47%)
   displ. norm   :     0.1619055 α      lambda       -0.1387207E-03
   maximum displ.:     0.0930958 α      in ANC's #2, #5, #3, ...

........................................................................
.............................. CYCLE    6 ..............................
........................................................................

 iter      E             dE          RMSdq      gap      omega  full diag
   1    -44.6657904 -0.446658E+02  0.393E-02    2.18       0.0  T
   2    -44.6657906 -0.193269E-06  0.231E-02    2.18       1.0  T
   3    -44.6657901  0.461895E-06  0.367E-03    2.18       4.6  T
   4    -44.6657907 -0.545286E-06  0.827E-04    2.18      20.4  T
   5    -44.6657907 -0.102856E-07  0.430E-04    2.18      39.3  T
     SCC iter.                  ...        0 min,  0.004 sec
     gradient                   ...        0 min,  0.003 sec
 * total energy  :   -43.8813837 Eh     change       -0.1037984E-03 Eh
   gradient norm :     0.0029361 Eh/α   predicted    -0.7120737E-04 ( -31.40%)
   displ. norm   :     0.1576546 α      lambda       -0.1091107E-03
   maximum displ.:     0.0985226 α      in ANC's #2, #3, #5, ...

........................................................................
.............................. CYCLE    7 ..............................
........................................................................

 iter      E             dE          RMSdq      gap      omega  full diag
   1    -44.6661610 -0.446662E+02  0.440E-02    2.18       0.0  T
   2    -44.6661612 -0.163806E-06  0.258E-02    2.18       1.0  T
   3    -44.6661610  0.202141E-06  0.266E-03    2.18       6.4  T
   4    -44.6661612 -0.261440E-06  0.782E-04    2.18      21.6  T
   5    -44.6661612 -0.106693E-07  0.354E-04    2.18      47.8  T
     SCC iter.                  ...        0 min,  0.004 sec
     gradient                   ...        0 min,  0.003 sec
 * total energy  :   -43.8814664 Eh     change       -0.8277909E-04 Eh
   gradient norm :     0.0021193 Eh/α   predicted    -0.5591153E-04 ( -32.46%)
   displ. norm   :     0.1497178 α      lambda       -0.7823941E-04
   maximum displ.:     0.0977815 α      in ANC's #2, #3, #5, ...

........................................................................
.............................. CYCLE    8 ..............................
........................................................................

 iter      E             dE          RMSdq      gap      omega  full diag
   1    -44.6666624 -0.446667E+02  0.464E-02    2.18       0.0  T
   2    -44.6666625 -0.145546E-06  0.272E-02    2.18       1.0  T
   3    -44.6666624  0.114541E-06  0.198E-03    2.18       8.5  T
   4    -44.6666626 -0.168160E-06  0.576E-04    2.18      29.3  T
   5    -44.6666626 -0.590105E-08  0.332E-04    2.18      50.9  T
     SCC iter.                  ...        0 min,  0.004 sec
     gradient                   ...        0 min,  0.003 sec
 * total energy  :   -43.8815255 Eh     change       -0.5907486E-04 Eh
   gradient norm :     0.0018370 Eh/α   predicted    -0.3999689E-04 ( -32.29%)
   displ. norm   :     0.1914321 α      lambda       -0.5127531E-04
   maximum displ.:     0.1289488 α      in ANC's #2, #3, #4, ...

........................................................................
.............................. CYCLE    9 ..............................
........................................................................

 iter      E             dE          RMSdq      gap      omega  full diag
   1    -44.6671066 -0.446671E+02  0.616E-02    2.18       0.0  T
   2    -44.6671068 -0.218216E-06  0.362E-02    2.18       1.0  T
   3    -44.6671059  0.926793E-06  0.495E-03    2.18       3.4  T
   4    -44.6671070 -0.106514E-05  0.856E-04    2.18      19.7  T
   5    -44.6671070 -0.132193E-07  0.434E-04    2.18      38.9  T
   6    -44.6671070 -0.150348E-08  0.182E-04    2.18      93.0  T
     SCC iter.                  ...        0 min,  0.005 sec
     gradient                   ...        0 min,  0.003 sec
 * total energy  :   -43.8815760 Eh     change       -0.5048700E-04 Eh
   gradient norm :     0.0017677 Eh/α   predicted    -0.2605585E-04 ( -48.39%)
   displ. norm   :     0.0987899 α      lambda       -0.2316136E-04
   maximum displ.:     0.0678872 α      in ANC's #2, #3, #6, ...

........................................................................
.............................. CYCLE   10 ..............................
........................................................................

 iter      E             dE          RMSdq      gap      omega  full diag
   1    -44.6672387 -0.446672E+02  0.308E-02    2.18       0.0  T
   2    -44.6672387 -0.366889E-07  0.181E-02    2.18       1.0  T
   3    -44.6672385  0.274939E-06  0.264E-03    2.18       6.4  T
   4    -44.6672388 -0.311039E-06  0.356E-04    2.18      47.5  T
   5    -44.6672388 -0.769909E-09  0.195E-04    2.18      86.8  T
     SCC iter.                  ...        0 min,  0.004 sec
     gradient                   ...        0 min,  0.003 sec
 * total energy  :   -43.8816027 Eh     change       -0.2669654E-04 Eh
   gradient norm :     0.0011291 Eh/α   predicted    -0.1163174E-04 ( -56.43%)
   displ. norm   :     0.1109955 α      lambda       -0.2102994E-04
   maximum displ.:     0.0733681 α      in ANC's #2, #3, #6, ...

........................................................................
.............................. CYCLE   11 ..............................
........................................................................

 iter      E             dE          RMSdq      gap      omega  full diag
   1    -44.6670481 -0.446670E+02  0.348E-02    2.18       0.0  T
   2    -44.6670481 -0.430548E-07  0.204E-02    2.18       1.0  T
   3    -44.6670479  0.212307E-06  0.252E-03    2.18       6.7  T
   4    -44.6670482 -0.249187E-06  0.366E-04    2.18      46.2  T
   5    -44.6670482  0.115037E-10  0.202E-04    2.18      83.8  T
     SCC iter.                  ...        0 min,  0.004 sec
     gradient                   ...        0 min,  0.003 sec
 * total energy  :   -43.8816231 Eh     change       -0.2044477E-04 Eh
   gradient norm :     0.0010037 Eh/α   predicted    -0.1057557E-04 ( -48.27%)
   displ. norm   :     0.0868179 α      lambda       -0.1238354E-04
   maximum displ.:     0.0573611 α      in ANC's #2, #3, #5, ...

........................................................................
.............................. CYCLE   12 ..............................
........................................................................

 iter      E             dE          RMSdq      gap      omega  full diag
   1    -44.6668885 -0.446669E+02  0.264E-02    2.18       0.0  T
   2    -44.6668886 -0.385745E-07  0.155E-02    2.18       1.1  T
   3    -44.6668885  0.104869E-06  0.189E-03    2.18       9.0  T
   4    -44.6668886 -0.127661E-06  0.319E-04    2.18      53.0  T
   5    -44.6668886 -0.692097E-09  0.196E-04    2.18      86.1  T
     SCC iter.                  ...        0 min,  0.004 sec
     gradient                   ...        0 min,  0.003 sec
 * total energy  :   -43.8816343 Eh     change       -0.1118860E-04 Eh
   gradient norm :     0.0009519 Eh/α   predicted    -0.6215212E-05 ( -44.45%)
   displ. norm   :     0.0562687 α      lambda       -0.6413739E-05
   maximum displ.:     0.0376551 α      in ANC's #2, #3, #5, ...

........................................................................
.............................. CYCLE   13 ..............................
........................................................................

 iter      E             dE          RMSdq      gap      omega  full diag
   1    -44.6670178 -0.446670E+02  0.161E-02    2.18       0.0  T
   2    -44.6670179 -0.183938E-07  0.945E-03    2.18       1.8  T
   3    -44.6670179  0.756546E-08  0.666E-04    2.18      25.4  T
   4    -44.6670179 -0.133869E-07  0.209E-04    2.18      80.8  T
     SCC iter.                  ...        0 min,  0.003 sec
     gradient                   ...        0 min,  0.003 sec
 * total energy  :   -43.8816421 Eh     change       -0.7781652E-05 Eh
   gradient norm :     0.0006786 Eh/α   predicted    -0.3213414E-05 ( -58.71%)
   displ. norm   :     0.0868297 α      lambda       -0.8885769E-05
   maximum displ.:     0.0541648 α      in ANC's #2, #3, #5, ...

........................................................................
.............................. CYCLE   14 ..............................
........................................................................

 iter      E             dE          RMSdq      gap      omega  full diag
   1    -44.6669820 -0.446670E+02  0.237E-02    2.18       0.0  T
   2    -44.6669820 -0.535627E-07  0.140E-02    2.18       1.2  T
   3    -44.6669819  0.149910E-06  0.208E-03    2.18       8.1  T
   4    -44.6669820 -0.172367E-06  0.415E-04    2.18      40.8  T
   5    -44.6669820 -0.363411E-08  0.163E-04    2.18     104.0  T
     SCC iter.                  ...        0 min,  0.004 sec
     gradient                   ...        0 min,  0.003 sec
 * total energy  :   -43.8816517 Eh     change       -0.9582242E-05 Eh
   gradient norm :     0.0004853 Eh/α   predicted    -0.4458306E-05 ( -53.47%)
   displ. norm   :     0.0895850 α      lambda       -0.6330224E-05
   maximum displ.:     0.0525155 α      in ANC's #2, #5, #1, ...

........................................................................
.............................. CYCLE   15 ..............................
........................................................................

 iter      E             dE          RMSdq      gap      omega  full diag
   1    -44.6670040 -0.446670E+02  0.239E-02    2.17       0.0  T
   2    -44.6670040 -0.573208E-07  0.141E-02    2.17       1.2  T
   3    -44.6670039  0.163603E-06  0.219E-03    2.17       7.7  T
   4    -44.6670041 -0.187090E-06  0.451E-04    2.17      37.5  T
   5    -44.6670041 -0.430841E-08  0.168E-04    2.17     100.7  T
     SCC iter.                  ...        0 min,  0.004 sec
     gradient                   ...        0 min,  0.003 sec
 * total energy  :   -43.8816580 Eh     change       -0.6292966E-05 Eh
   gradient norm :     0.0006454 Eh/α   predicted    -0.3179519E-05 ( -49.48%)
   displ. norm   :     0.0700023 α      lambda       -0.4055271E-05
   maximum displ.:     0.0387364 α      in ANC's #2, #5, #1, ...

........................................................................
.............................. CYCLE   16 ..............................
........................................................................

 iter      E             dE          RMSdq      gap      omega  full diag
   1    -44.6670746 -0.446671E+02  0.183E-02    2.17       0.0  T
   2    -44.6670746 -0.295799E-07  0.108E-02    2.17       1.6  T
   3    -44.6670745  0.116649E-06  0.180E-03    2.17       9.4  T
   4    -44.6670746 -0.133160E-06  0.283E-04    2.17      59.7  T
   5    -44.6670746 -0.150102E-08  0.132E-04    2.17     128.5  T
     SCC iter.                  ...        0 min,  0.004 sec
     gradient                   ...        0 min,  0.003 sec
 * total energy  :   -43.8816621 Eh     change       -0.4082024E-05 Eh
   gradient norm :     0.0004230 Eh/α   predicted    -0.2033607E-05 ( -50.18%)
   displ. norm   :     0.0445380 α      lambda       -0.2560563E-05
   maximum displ.:     0.0233517 α      in ANC's #1, #6, #2, ...

   *** GEOMETRY OPTIMIZATION CONVERGED AFTER 16 ITERATIONS ***

------------------------------------------------------------------------
 total energy gain   :        -0.0104267 Eh       -6.5428 kcal/mol
 total RMSD          :         0.2857721 a0        0.1512 Å
 total power (kW/mol):        -1.7109482 (step) -170.8225 (real)
------------------------------------------------------------------------

 ANCopt (total)                0 d,  0 h,  0 min,  0.160 sec
 optimizer setup                ...        0 min,  0.000 sec (  0.041%)
 model hessian                  ...        0 min,  0.011 sec (  6.796%)
 ANC generation                 ...        0 min,  0.001 sec (  0.447%)
 coordinate transformation      ...        0 min,  0.000 sec (  0.062%)
 single point calculation       ...        0 min,  0.146 sec ( 91.222%)
 optimization log               ...        0 min,  0.001 sec (  0.658%)
 hessian update                 ...        0 min,  0.000 sec (  0.087%)
 rational function              ...        0 min,  0.001 sec (  0.459%)

================
 final structure:
================
35
 xtb: 6.7.1 (edcfbbe)
C           -1.40865320742882        1.88188335925519       -0.41250597568272
C           -1.11321727348779        0.91182311697318       -1.54658697688591
C           -1.51207044956576       -0.55032611780084       -1.19170329286152
C           -2.98126326542208       -0.61219061043685       -0.93979077553789
C           -3.50483573169974       -0.95406229207284        0.26107968920728
C           -2.67287484365127       -1.33089641142741        1.32610101233290
C           -1.29010684817637       -1.42240558759337        1.12835586090467
C           -0.69728584582771       -1.09670775550850       -0.05506277843362
C            0.77699179490259       -1.27654481060790       -0.31369792637155
C            1.37698538679175       -2.48227430547735        0.42219974700810
C            1.57304103617879       -0.03768310408624        0.04678947453021
C            1.42446265688620        0.57507340248396        1.28450924935653
C            2.16853527749388        1.69434226994249        1.61170410006515
C            3.07719254680840        2.21612403169386        0.70702391690910
C            3.23958143573169        1.60801201435309       -0.52520591675040
C            2.49266036346608        0.48951553741705       -0.85057423180737
H           -2.46577419479870        1.86194316721366       -0.15814822063550
H           -1.13849832820981        2.89426679917872       -0.70495950859512
H           -0.83646904481154        1.61726219251418        0.47277454185162
H           -0.04998287435668        0.94587671543615       -1.78679074224321
H           -1.67202677431037        1.21040633270318       -2.43650087378034
H           -1.28511113383339       -1.13893962041999       -2.09823034337398
H           -3.62014723703137       -0.32889805399987       -1.76387016007830
H           -4.57647063633535       -0.95376131967689        0.40598459328857
H           -3.09860658507560       -1.59088544997890        2.28209970398300
H           -0.69146275270771       -1.79939235182899        1.94505562385051
H            0.90441729208352       -1.45079037053032       -1.38958744524653
H            2.38776976941041       -2.66359674950389        0.06215002790546
H            0.77612182894039       -3.37124588606176        0.24351444668401
H            1.43182195802425       -2.30374064221662        1.49254615778872
H            0.71518065205317        0.17802655576209        1.99572622864394
H            2.03737130975517        2.16241599883092        2.57661984751901
H            3.65664201202961        3.09121034160928        0.96178314812647
H            3.94928727016381        2.00542820601373       -1.23646527779115
H            2.62689443600927        0.02093139784914       -1.81633692387960

 Bond Distances (Angstroems)
 ---------------------------
C1-C2=1.5213         C1-H17=1.0875        C1-H18=1.0879        C1-H19=1.0868        C2-C1=1.5213         C2-C3=1.5566         
C2-H20=1.0906        C2-H21=1.0924        C3-C2=1.5566         C3-C4=1.4919         C3-C8=1.5015         C3-H22=1.1044        
C4-C3=1.4919         C4-C5=1.3539         C4-H23=1.0805        C5-C4=1.3539         C5-C6=1.4030         C5-H24=1.0814        
C6-C5=1.4030         C6-C7=1.3998         C6-H25=1.0783        C7-C6=1.3998         C7-C8=1.3631         C7-H26=1.0805        
C8-C3=1.5015         C8-C7=1.3631         C8-C9=1.5076         C9-C8=1.5076         C9-C10=1.5347        C9-C11=1.5161        
C9-H27=1.0973        C10-C9=1.5347        C10-H28=1.0882       C10-H29=1.0878       C10-H30=1.0865       C11-C9=1.5161        
C11-C12=1.3891       C11-C16=1.3888       C12-C11=1.3891       C12-C13=1.3833       C12-H31=1.0801       C13-C12=1.3833       
C13-C14=1.3843       C13-H32=1.0804       C14-C13=1.3843       C14-C15=1.3837       C14-H33=1.0800       C15-C14=1.3837       
C15-C16=1.3838       C15-H34=1.0805       C16-C11=1.3888       C16-C15=1.3838       C16-H35=1.0818       H17-C1=1.0875        
H18-C1=1.0879        H19-C1=1.0868        H20-C2=1.0906        H21-C2=1.0924        H22-C3=1.1044        H23-C4=1.0805        
H24-C5=1.0814        H25-C6=1.0783        H26-C7=1.0805        H27-C9=1.0973        H28-C10=1.0882       H29-C10=1.0878       
H30-C10=1.0865       H31-C12=1.0801       H32-C13=1.0804       H33-C14=1.0800       H34-C15=1.0805       H35-C16=1.0818       
 C  H  Rav=1.0859 sigma=0.0066  Rmin=1.0783  Rmax=1.1044    19
 C  C  Rav=1.4390 sigma=0.0687  Rmin=1.3539  Rmax=1.5566    17

 selected bond angles (degree)
 --------------------
H17-C1-C2=110.58               H18-C1-C2=110.17               H18-C1-H17=108.74              H19-C1-C2=110.47               
H19-C1-H17=108.47              H19-C1-H18=108.35              C3-C2-C1=112.29                H20-C2-C1=109.49               
H20-C2-C3=109.23               H21-C2-C1=109.49               H21-C2-C3=108.14               H21-C2-H20=108.10              
C4-C3-C2=109.26                C8-C3-C2=112.05                C8-C3-C4=113.05                H22-C3-C2=105.12               
H22-C3-C4=108.59               H22-C3-C8=108.42               C5-C4-C3=122.76                H23-C4-C3=116.27               
H23-C4-C5=120.93               C6-C5-C4=120.78                H24-C5-C4=120.13               H24-C5-C6=119.08               
C7-C6-C5=119.74                H25-C6-C5=120.24               H25-C6-C7=119.97               C8-C7-C6=122.45                
H26-C7-C6=117.60               H26-C7-C8=119.91               C7-C8-C3=120.54                C9-C8-C3=116.37                
C9-C8-C7=123.08                C10-C9-C8=113.19               C11-C9-C8=112.04               C11-C9-C10=108.83              
H27-C9-C8=107.50               H27-C9-C10=107.46              H27-C9-C11=107.57              H28-C10-C9=109.60              
H29-C10-C9=110.32              H29-C10-H28=108.82             H30-C10-C9=111.28              H30-C10-H28=107.84             
H30-C10-H29=108.90             

 selected dihedral angles (degree)
 ---------------------------------
C3-C2-C1-H17=301.52           C3-C2-C1-H18=181.29           C3-C2-C1-H19= 61.61           H20-C2-C1-H17=180.01          
H20-C2-C1-H18= 59.78          H20-C2-C1-H19=300.10          H21-C2-C1-H17= 61.66          H21-C2-C1-H18=301.42          
H21-C2-C1-H19=181.75          C4-C3-C2-C1= 61.58            C4-C3-C2-H20=183.24           C4-C3-C2-H21=300.67           
C8-C3-C2-C1=295.50            C8-C3-C2-H20= 57.16           C8-C3-C2-H21=174.59           H22-C3-C2-C1=177.96           
H22-C3-C2-H20=299.61          H22-C3-C2-H21= 57.04          C5-C4-C3-C2=243.03            C5-C4-C3-C8=  8.53            
C5-C4-C3-H22=128.89           H23-C4-C3-C2= 60.67           H23-C4-C3-C8=186.18           H23-C4-C3-H22=306.53          
C6-C5-C4-C3=357.06            C6-C5-C4-H23=179.53           H24-C5-C4-C3=177.98           H24-C5-C4-H23=  0.45          
C7-C6-C5-C4=356.66            C7-C6-C5-H24=175.75           H25-C6-C5-C4=179.32           H25-C6-C5-H24=358.41          
C8-C7-C6-C5=  3.17            C8-C7-C6-H25=180.53           H26-C7-C6-C5=185.30           H26-C7-C6-H25=  2.66          
C7-C8-C3-C2=115.45            C7-C8-C3-C4=351.47            C7-C8-C3-H22=231.01           C9-C8-C3-C2=294.50            
C9-C8-C3-C4=170.52            C9-C8-C3-H22= 50.06           C3-C8-C7-C6=  3.19            C3-C8-C7-H26=181.01           
C9-C8-C7-C6=184.20            C9-C8-C7-H26=  2.03           C10-C9-C8-C3=213.58           C10-C9-C8-C7= 32.60           
C11-C9-C8-C3= 90.06           C11-C9-C8-C7=269.09           H27-C9-C8-C3=332.08           H27-C9-C8-C7=151.11           
H28-C10-C9-C8=170.04          H28-C10-C9-C11=295.30         H28-C10-C9-H27= 51.51         H29-C10-C9-C8= 50.24          
H29-C10-C9-C11=175.50         H29-C10-C9-H27=291.71         H30-C10-C9-C8=289.24          H30-C10-C9-C11= 54.50         
H30-C10-C9-H27=170.70         
           -------------------------------------------------
          |                Final Singlepoint                |
           -------------------------------------------------

          ...................................................
          :                      SETUP                      :
          :.................................................:
          :  # basis functions                  83          :
          :  # atomic orbitals                  83          :
          :  # shells                           51          :
          :  # electrons                        83          :
          :  max. iterations                   250          :
          :  Hamiltonian                  GFN2-xTB          :
          :  restarted?                      false          :
          :  GBSA solvation                  false          :
          :  PC potential                    false          :
          :  electronic temp.          300.0000000     K    :
          :  accuracy                    1.0000000          :
          :  -> integral cutoff          0.2500000E+02      :
          :  -> integral neglect         0.1000000E-07      :
          :  -> SCF convergence          0.1000000E-05 Eh   :
          :  -> wf. convergence          0.1000000E-03 e    :
          :  Broyden damping             0.4000000          :
          :  net charge                          0          :
          :  unpaired electrons                  0          :
          ...................................................

 iter      E             dE          RMSdq      gap      omega  full diag
   1    -44.6670746 -0.446671E+02  0.535E-05    2.17       0.0  T
   2    -44.6670746 -0.287841E-10  0.361E-05    2.17     468.3  T
   3    -44.6670746 -0.290186E-10  0.184E-05    2.17     921.0  T

   *** convergence criteria satisfied after 3 iterations ***

         #    Occupation            Energy/Eh            Energy/eV
      -------------------------------------------------------------
         1        2.0000           -0.6433387             -17.5061
       ...           ...                  ...                  ...
        36        2.0000           -0.4195636             -11.4169
        37        2.0000           -0.4109850             -11.1835
        38        2.0000           -0.4076623             -11.0931
        39        2.0000           -0.3999216             -10.8824
        40        2.0000           -0.3926861             -10.6855
        41        2.0000           -0.3887733             -10.5791
        42        1.0000           -0.2997874              -8.1576 (HOMO)
        43                         -0.2199052              -5.9839 (LUMO)
        44                         -0.2195519              -5.9743
        45                         -0.2037519              -5.5444
        46                         -0.1220198              -3.3203
        47                         -0.0904019              -2.4600
       ...                                ...                  ...
        83                          0.6669562              18.1488
      -------------------------------------------------------------
                  HL-Gap            0.0798822 Eh            2.1737 eV
             Fermi-level           -0.3020633 Eh           -8.2196 eV

 SCC (total)                   0 d,  0 h,  0 min,  0.007 sec
 SCC setup                      ...        0 min,  0.000 sec (  0.733%)
 Dispersion                     ...        0 min,  0.000 sec (  1.202%)
 classical contributions        ...        0 min,  0.000 sec (  0.314%)
 integral evaluation            ...        0 min,  0.001 sec ( 14.113%)
 iterations                     ...        0 min,  0.003 sec ( 37.408%)
 molecular gradient             ...        0 min,  0.003 sec ( 42.759%)
 printout                       ...        0 min,  0.000 sec (  3.345%)

         :::::::::::::::::::::::::::::::::::::::::::::::::::::
         ::                     SUMMARY                     ::
         :::::::::::::::::::::::::::::::::::::::::::::::::::::
         :: total energy             -43.881662067828 Eh    ::
         :: gradient norm              0.000423121689 Eh/a0 ::
         :: HOMO-LUMO gap              2.173706455403 eV    ::
         ::.................................................::
         :: SCC energy               -44.666346047052 Eh    ::
         :: -> isotropic ES            0.004247551866 Eh    ::
         :: -> anisotropic ES          0.008926126124 Eh    ::
         :: -> anisotropic XC          0.028432251913 Eh    ::
         :: -> dispersion             -0.037695066775 Eh    ::
         :: repulsion energy           0.784683979224 Eh    ::
         :: add. restraining           0.000000000000 Eh    ::
         :: total charge               0.000000000000 e     ::
         :::::::::::::::::::::::::::::::::::::::::::::::::::::

           -------------------------------------------------
          |                Property Printout                |
           -------------------------------------------------

    * Orbital Energies and Occupations

         #    Occupation            Energy/Eh            Energy/eV
      -------------------------------------------------------------
         1        2.0000           -0.6433387             -17.5061
       ...           ...                  ...                  ...
        30        2.0000           -0.4522250             -12.3057
        31        2.0000           -0.4452732             -12.1165
        32        2.0000           -0.4384098             -11.9297
        33        2.0000           -0.4340915             -11.8122
        34        2.0000           -0.4294132             -11.6849
        35        2.0000           -0.4232714             -11.5178
        36        2.0000           -0.4195636             -11.4169
        37        2.0000           -0.4109850             -11.1835
        38        2.0000           -0.4076623             -11.0931
        39        2.0000           -0.3999216             -10.8824
        40        2.0000           -0.3926861             -10.6855
        41        2.0000           -0.3887733             -10.5791
        42        1.0000           -0.2997874              -8.1576 (HOMO)
        43                         -0.2199052              -5.9839 (LUMO)
        44                         -0.2195519              -5.9743
        45                         -0.2037519              -5.5444
        46                         -0.1220198              -3.3203
        47                         -0.0904019              -2.4600
        48                          0.0608581               1.6560
        49                          0.0907233               2.4687
        50                          0.0982309               2.6730
        51                          0.1085216               2.9530
        52                          0.1178524               3.2069
        53                          0.1240430               3.3754
       ...                                ...                  ...
        83                          0.6669562              18.1488
      -------------------------------------------------------------
                  HL-Gap            0.0798822 Eh            2.1737 eV
             Fermi-level           -0.3020633 Eh           -8.2196 eV

     #   Z          covCN         q      C6AA      α(0)
     1   6 C        3.751    -0.100    22.478     6.761
     2   6 C        3.803    -0.049    21.450     6.594
     3   6 C        3.860    -0.015    20.800     6.486
     4   6 C        2.910    -0.041    29.024     8.834
     5   6 C        2.902    -0.032    28.808     8.801
     6   6 C        2.916    -0.045    29.123     8.849
     7   6 C        2.906    -0.037    28.914     8.817
     8   6 C        2.958    -0.001    28.044     8.686
     9   6 C        3.859    -0.021    20.916     6.504
    10   6 C        3.756    -0.099    22.439     6.754
    11   6 C        2.974     0.017    27.627     8.622
    12   6 C        2.925    -0.035    28.864     8.811
    13   6 C        2.919    -0.031    28.762     8.795
    14   6 C        2.920    -0.033    28.822     8.804
    15   6 C        2.919    -0.031    28.768     8.796
    16   6 C        2.925    -0.038    28.942     8.822
    17   1 H        0.925     0.037     2.488     2.467
    18   1 H        0.925     0.031     2.570     2.507
    19   1 H        0.925     0.037     2.485     2.465
    20   1 H        0.924     0.034     2.534     2.489
    21   1 H        0.924     0.032     2.564     2.504
    22   1 H        0.923     0.040     2.449     2.447
    23   1 H        0.926     0.023     2.695     2.567
    24   1 H        0.925     0.023     2.686     2.563
    25   1 H        0.926     0.022     2.707     2.573
    26   1 H        0.926     0.028     2.620     2.531
    27   1 H        0.924     0.034     2.535     2.490
    28   1 H        0.925     0.035     2.520     2.483
    29   1 H        0.925     0.038     2.473     2.459
    30   1 H        0.925     0.039     2.468     2.457
    31   1 H        0.926     0.033     2.548     2.496
    32   1 H        0.926     0.028     2.621     2.532
    33   1 H        0.926     0.027     2.623     2.533
    34   1 H        0.926     0.028     2.622     2.532
    35   1 H        0.925     0.024     2.669     2.555

 Mol. C6AA /au·bohr⁶  :      12659.739603
 Mol. C8AA /au·bohr⁸  :     299457.488721
 Mol. α(0) /au        :        177.384505


Wiberg/Mayer (AO) data.
largest (>0.10) Wiberg bond orders for each atom

 ---------------------------------------------------------------------------
     #   Z sym  total        # sym  WBO       # sym  WBO       # sym  WBO
 ---------------------------------------------------------------------------
     1   6 C    3.997 --     2 C    1.023    18 H    0.986    17 H    0.986
                            19 H    0.982
     2   6 C    3.993 --     1 C    1.023    21 H    0.977    20 H    0.973
                             3 C    0.933
     3   6 C    3.995 --     4 C    1.037     8 C    1.023     2 C    0.933
                            22 H    0.926
     4   6 C    3.921 --     5 C    1.633     3 C    1.037    23 H    0.971
     5   6 C    3.993 --     4 C    1.633     6 C    1.306    24 H    0.968
     6   6 C    3.875 --     7 C    1.332     5 C    1.306    25 H    0.974
     7   6 C    3.992 --     8 C    1.575     6 C    1.332    26 H    0.962
     8   6 C    3.915 --     7 C    1.575     3 C    1.023     9 C    1.003
     9   6 C    3.995 --     8 C    1.003    10 C    0.986    11 C    0.974
                            27 H    0.960
    10   6 C    3.996 --    28 H    0.987     9 C    0.986    29 H    0.986
                            30 H    0.984
    11   6 C    3.987 --    16 C    1.412    12 C    1.408     9 C    0.974
                            14 C    0.109
    12   6 C    3.992 --    13 C    1.446    11 C    1.408    31 H    0.966
                            15 C    0.111
    13   6 C    3.992 --    12 C    1.446    14 C    1.436    32 H    0.971
                            16 C    0.110
    14   6 C    3.991 --    15 C    1.440    13 C    1.436    33 H    0.972
                            11 C    0.109
    15   6 C    3.991 --    16 C    1.442    14 C    1.440    34 H    0.971
                            12 C    0.111
    16   6 C    3.990 --    15 C    1.442    11 C    1.412    35 H    0.969
                            13 C    0.110
    17   1 H    0.999 --     1 C    0.986
    18   1 H    0.999 --     1 C    0.986
    19   1 H    0.999 --     1 C    0.982
    20   1 H    0.999 --     2 C    0.973
    21   1 H    0.999 --     2 C    0.977
    22   1 H    0.997 --     3 C    0.926
    23   1 H    0.999 --     4 C    0.971
    24   1 H    0.998 --     5 C    0.968
    25   1 H    0.999 --     6 C    0.974
    26   1 H    0.999 --     7 C    0.962
    27   1 H    0.998 --     9 C    0.960
    28   1 H    0.998 --    10 C    0.987
    29   1 H    0.998 --    10 C    0.986
    30   1 H    0.999 --    10 C    0.984
    31   1 H    0.999 --    12 C    0.966
    32   1 H    0.999 --    13 C    0.971
    33   1 H    0.999 --    14 C    0.972
    34   1 H    0.999 --    15 C    0.971
    35   1 H    0.999 --    16 C    0.969
 ---------------------------------------------------------------------------

Topologies differ in total number of bonds
Writing topology from bond orders to xtbtopo.mol

molecular dipole:
                 x           y           z       tot (Debye)
 q only:        0.187      -0.037      -0.172
   full:        0.217      -0.022      -0.218       0.785
molecular quadrupole (traceless):
                xx          xy          yy          xz          yz          zz
 q only:       -2.060      -1.192       0.428       0.338       0.214       1.632
  q+dip:       -1.655       0.922      -3.356      -1.580       0.164       5.011
   full:       -1.897      -0.528      -1.078      -0.199       0.239       2.974

           -------------------------------------------------
          |                Geometry Summary                 |
           -------------------------------------------------

      molecular mass/u    :      211.3226486
   center of mass at/Å    :        0.0494189      -0.0201132       0.0496002
  moments of inertia/u·Å² :        0.5274711E+03   0.1301673E+04   0.1440811E+04
rotational constants/cm⁻¹ :        0.3195935E-01   0.1295074E-01   0.1170010E-01

 * 31 selected distances

     #   Z          #   Z                                           value/Å
     1   6 C        2   6 C                                       1.5213282
     4   6 C        5   6 C                                       1.3539182
     5   6 C        6   6 C                                       1.4030088
     6   6 C        7   6 C                                       1.3998303
     7   6 C        8   6 C                                       1.3630832
     9   6 C       10   6 C                                       1.5347058 (max)
    11   6 C       12   6 C                                       1.3890632
    12   6 C       13   6 C                                       1.3832800
    13   6 C       14   6 C                                       1.3843269
    14   6 C       15   6 C                                       1.3836767
    11   6 C       16   6 C                                       1.3888485
    15   6 C       16   6 C                                       1.3837595
     1   6 C       17   1 H                                       1.0874744
     1   6 C       18   1 H                                       1.0878571
     1   6 C       19   1 H                                       1.0868031
     2   6 C       20   1 H                                       1.0905618
     2   6 C       21   1 H                                       1.0924134
     3   6 C       22   1 H                                       1.1044310
     4   6 C       23   1 H                                       1.0805251
     5   6 C       24   1 H                                       1.0813876
     6   6 C       25   1 H                                       1.0783207 (min)
     7   6 C       26   1 H                                       1.0805057
     9   6 C       27   1 H                                       1.0973319
    10   6 C       28   1 H                                       1.0882090
    10   6 C       29   1 H                                       1.0877666
    10   6 C       30   1 H                                       1.0865187
    12   6 C       31   1 H                                       1.0800727
    13   6 C       32   1 H                                       1.0804442
    14   6 C       33   1 H                                       1.0800186
    15   6 C       34   1 H                                       1.0805147
    16   6 C       35   1 H                                       1.0817984

 * 2 distinct bonds (by element types)

   Z      Z             #   av. dist./Å        max./Å        min./Å
   1 H    6 C          19     1.0859450     1.1044310     1.0783207
   6 C    6 C          12     1.4074024     1.5347058     1.3539182


optimized geometry written to: xtbopt.xyz


           -------------------------------------------------
          | TOTAL ENERGY              -43.881662067828 Eh   |
          | GRADIENT NORM               0.000423121689 Eh/α |
          | HOMO-LUMO GAP               2.173706455403 eV   |
           -------------------------------------------------

------------------------------------------------------------------------
 * finished run on 2025/09/15 at 14:21:06.322     
------------------------------------------------------------------------
 total:
 * wall-time:     0 d,  0 h,  0 min,  0.211 sec
 *  cpu-time:     0 d,  0 h,  0 min,  0.826 sec
 * ratio c/w:     3.921 speedup
 SCF:
 * wall-time:     0 d,  0 h,  0 min,  0.024 sec
 *  cpu-time:     0 d,  0 h,  0 min,  0.091 sec
 * ratio c/w:     3.833 speedup
 ANC optimizer:
 * wall-time:     0 d,  0 h,  0 min,  0.168 sec
 *  cpu-time:     0 d,  0 h,  0 min,  0.673 sec
 * ratio c/w:     4.000 speedup

