35
 energy: -43.871235416315 gnorm: 0.066963253072 xtb: 6.7.1 (edcfbbe)
C           -1.54010000000000        1.97590000000000       -0.44530000000000
C           -1.21500000000000        0.95930000000000       -1.53440000000000
C           -1.52840000000000       -0.50890000000000       -1.17400000000000
C           -3.03490000000000       -0.68260000000000       -1.00690000000000
C           -3.60690000000000       -1.07660000000000        0.13960000000000
C           -2.75960000000000       -1.35260000000000        1.26820000000000
C           -1.32640000000000       -1.45620000000000        1.14800000000000
C           -0.70790000000000       -1.06060000000000        0.01400000000000
C            0.79420000000000       -1.25350000000000       -0.22660000000000
C            1.39480000000000       -2.48740000000000        0.46990000000000
C            1.63710000000000       -0.02800000000000        0.10620000000000
C            1.58670000000000        0.58240000000000        1.36920000000000
C            2.38070000000000        1.69420000000000        1.65750000000000
C            3.24300000000000        2.20650000000000        0.69130000000000
C            3.31470000000000        1.60570000000000       -0.56300000000000
C            2.52080000000000        0.49420000000000       -0.85280000000000
H           -2.61220000000000        2.00110000000000       -0.22830000000000
H           -1.24720000000000        2.97840000000000       -0.77430000000000
H           -1.00730000000000        1.76270000000000        0.48450000000000
H           -0.16030000000000        1.05860000000000       -1.80960000000000
H           -1.77780000000000        1.23510000000000       -2.43630000000000
H           -1.26320000000000       -1.12400000000000       -2.04600000000000
H           -3.65930000000000       -0.46580000000000       -1.86920000000000
H           -4.68040000000000       -1.18800000000000        0.24020000000000
H           -3.22090000000000       -1.58440000000000        2.22210000000000
H           -0.79170000000000       -1.87700000000000        1.99220000000000
H            0.90410000000000       -1.45750000000000       -1.30150000000000
H            2.42400000000000       -2.65670000000000        0.13140000000000
H            0.81850000000000       -3.38920000000000        0.23510000000000
H            1.43050000000000       -2.37820000000000        1.55950000000000
H            0.92160000000000        0.20030000000000        2.13970000000000
H            2.32420000000000        2.16010000000000        2.63770000000000
H            3.85990000000000        3.07210000000000        0.91670000000000
H            3.98970000000000        2.00190000000000       -1.31700000000000
H            2.59510000000000        0.03890000000000       -1.83780000000000
35
 energy: -43.878498414446 gnorm: 0.029420471108 xtb: 6.7.1 (edcfbbe)
C           -1.53521718120543        1.95938716356564       -0.44127388387519
C           -1.19682100899771        0.95563480752968       -1.53541778665446
C           -1.51510936369260       -0.51194578639555       -1.17428674679976
C           -3.00076408891726       -0.67728843628917       -0.99527955760116
C           -3.56673456896649       -1.06448994110331        0.16532661293901
C           -2.74762918886602       -1.37046640064493        1.27623026591887
C           -1.33971277078802       -1.43312883618907        1.14019475995531
C           -0.71102099453918       -1.05093609311603        0.00009135904425
C            0.78084793623811       -1.24230241679161       -0.24307450217824
C            1.37241824901366       -2.46815200752900        0.47323818545645
C            1.61853450783181       -0.01983809214379        0.09679813389859
C            1.57082607333911        0.58095935086991        1.35199466959598
C            2.36718711374115        1.67879994763311        1.64550450152575
C            3.22979144901466        2.19172565065237        0.69051220335833
C            3.29972983452936        1.59454463137114       -0.55659307666781
C            2.50319318308819        0.49735983349666       -0.84744177528100
H           -2.60396363784651        1.96645797791354       -0.22756960964088
H           -1.24770521082574        2.96078266182999       -0.76481116296149
H           -1.00111412569244        1.73521317963995        0.48018931388915
H           -0.13728059799151        1.04615468651835       -1.78974163813145
H           -1.76977554923483        1.21536301189180       -2.43320879792274
H           -1.23623227442130       -1.11110835734756       -2.05564453633946
H           -3.61502385508396       -0.45906701882358       -1.86065456117802
H           -4.63877032652453       -1.16695313607401        0.26563052267018
H           -3.20481929838191       -1.61470171951710        2.22390019867139
H           -0.79438471282591       -1.83342636144872        1.98320198200490
H            0.90070365914858       -1.42887730796677       -1.31887264183703
H            2.39731005014557       -2.62739727033321        0.13252572112046
H            0.79686712111179       -3.36459041756267        0.24039856216414
H            1.40505232860277       -2.34773042835287        1.55552410869525
H            0.90638308485893        0.19477391263737        2.11343842822907
H            2.31346748681871        2.13803888918923        2.62401850783023
H            3.84624699059836        3.05212153538712        0.91736075596585
H            3.97530177992125        1.98581423406937       -1.30631828411571
H            2.57831790679933        0.03946855343377       -1.82589023174870
35
 energy: -43.880566982023 gnorm: 0.007161527921 xtb: 6.7.1 (edcfbbe)
C           -1.52557141046337        1.93609904862602       -0.43339552225827
C           -1.17674248582245        0.94797936281040       -1.53772559440667
C           -1.50731439648768       -0.52401543966255       -1.17779902128733
C           -2.97927673858346       -0.67475700448017       -0.99034894385236
C           -3.53548002334133       -1.05266929411659        0.18435484150037
C           -2.72947238927426       -1.37181717864751        1.28420452284863
C           -1.33823878635097       -1.40899000762224        1.13764438899235
C           -0.70989550586213       -1.04791371244244       -0.01590877573116
C            0.77023955516710       -1.23601103381109       -0.25700138961241
C            1.35670127560230       -2.45358033488277        0.47211658765485
C            1.60122068083716       -0.01486781544476        0.08642947251902
C            1.54672922313526        0.57974313107243        1.33872196056086
C            2.34550768244072        1.66872073997012        1.63888229804921
C            3.21429094664648        2.18169556041176        0.69211886443994
C            3.28484541811763        1.58982895738380       -0.55533395150465
C            2.48653932630551        0.50063088480511       -0.85061591099619
H           -2.59268223624626        1.92185419800933       -0.22311557759986
H           -1.24759228167618        2.94212072529978       -0.74281905464006
H           -0.98983569586169        1.69805617552930        0.48157208652950
H           -0.11359782729240        1.03228583607750       -1.77150113749862
H           -1.74426886372759        1.20534346886747       -2.43621492542330
H           -1.21808345965811       -1.10474661479874       -2.07204417219826
H           -3.59245532078014       -0.44133096615262       -1.84947438328262
H           -4.60936417299722       -1.13087066983514        0.28554248517628
H           -3.18147549525973       -1.64275771411194        2.22502946136987
H           -0.77041041184919       -1.78141809698264        1.97944553509182
H            0.89599628424243       -1.41629338503836       -1.33200243474213
H            2.38031590181806       -2.61273748552483        0.13690041074705
H            0.77428549004327       -3.34433842101479        0.24851331842048
H            1.37755443279268       -2.30832040156591        1.54818877265595
H            0.87433780701856        0.19131886890176        2.08903681633596
H            2.29352588798867        2.11983217829220        2.61897059182041
H            3.83508911860260        3.03426861387684        0.92513071005162
H            3.96574632768098        1.97538654568858       -1.30015692164712
H            2.55893214309465        0.04247128051281       -1.82734540808304
35
 energy: -43.881029354106 gnorm: 0.005229615123 xtb: 6.7.1 (edcfbbe)
C           -1.51647325175563        1.91670536300354       -0.42571666034368
C           -1.16281885833769        0.94176225091854       -1.54018326901929
C           -1.50582862044835       -0.53366128342467       -1.18581672735577
C           -2.97669360662454       -0.66718427915793       -0.98817651535141
C           -3.52661837888980       -1.03794651445771        0.19321309195608
C           -2.71751584909520       -1.36813362146646        1.28857180726813
C           -1.32762408825423       -1.39650775102938        1.13799422334517
C           -0.70706323143674       -1.05118176921653       -0.02676306511546
C            0.76839066504662       -1.23691947392259       -0.26890116688589
C            1.35162724490648       -2.44802851668472        0.47236790591435
C            1.59193575515389       -0.01293763901876        0.07599533178231
C            1.52703083511597        0.57984679226662        1.32911502225324
C            2.32734505909375        1.66543015073786        1.63664690704097
C            3.20421389060362        2.17742058996344        0.69586375860195
C            3.27864752692749        1.59113586121441       -0.55486180480912
C            2.47965986831964        0.50438645760493       -0.85774073012809
H           -2.58322887530483        1.89002123580005       -0.21519514834245
H           -1.24542040573510        2.92850794190732       -0.72143251504862
H           -0.97844947097434        1.66843143038321        0.48543359167934
H           -0.09739386305291        1.01985858940563       -1.76302576073373
H           -1.72149076846053        1.20646109517214       -2.44085689216078
H           -1.21936242335069       -1.10889905225090       -2.08543681176027
H           -3.59452144827530       -0.42506978421583       -1.84076342757318
H           -4.60152448791002       -1.10300538251171        0.29566907672863
H           -3.16496789053771       -1.64851396936534        2.22871382273721
H           -0.74461714748018       -1.75075392701818        1.97824493516819
H            0.89678370331266       -1.41941995352473       -1.34323202504370
H            2.37505858416357       -2.61328528513137        0.14223688939430
H            0.76472813373499       -3.33803852897531        0.25849729455688
H            1.36792589541129       -2.28673364244688        1.54632507198636
H            0.84601422238726        0.19074186145510        2.07163700606260
H            2.27063994018175        2.11384634482769        2.61773417135274
H            3.82713588423862        3.02621938690866        0.93553682928569
H            3.96267828008905        1.97767461576759       -1.29614711452306
H            2.55189717723702        0.04797040648252       -1.83554710291943
35
 energy: -43.881279859614 gnorm: 0.004024606865 xtb: 6.7.1 (edcfbbe)
C           -1.50471522691454        1.89515752658542       -0.41615219679424
C           -1.14958098643623        0.93458475911805       -1.54191140137187
C           -1.50719135071613       -0.54345937474142       -1.19646704243207
C           -2.97877993499646       -0.65941994722721       -0.98641604817824
C           -3.52154325804568       -1.02132937980642        0.20082805842307
C           -2.70612545989136       -1.35451956256176        1.29278147300990
C           -1.31687356280237       -1.38752363582804        1.13564098272138
C           -0.70503899530642       -1.05933152933530       -0.03946695419331
C            0.76952118902291       -1.24180636050471       -0.28086801387268
C            1.35280447945254       -2.44581949427871        0.47166123882975
C            1.58571855416377       -0.01328293341218        0.06404835708597
C            1.50611018549590        0.57990024456859        1.31737608966799
C            2.30408885585556        1.66499429275710        1.63340403166351
C            3.19066857892398        2.17610016845342        0.70039066046520
C            3.27276621323578        1.59564430720057       -0.55332113129948
C            2.47656485983641        0.50841138510151       -0.86540773102577
H           -2.57070254546255        1.85715087823748       -0.20301528041292
H           -1.24098856424271        2.91325218939458       -0.69666279621508
H           -0.96263861556291        1.63626173245614        0.49015164944935
H           -0.08208558906169        1.00452028016052       -1.75526487406118
H           -1.69773376416150        1.21179675456653       -2.44495065580725
H           -1.23049513632350       -1.11779208857499       -2.09895982163806
H           -3.60403436039176       -0.40578179415447       -1.83024694931885
H           -4.59690875481408       -1.06976100274504        0.30967730604322
H           -3.14843672319431       -1.63691949045760        2.23456445574179
H           -0.72381193328026       -1.72974531556537        1.97260196327974
H            0.90135937044405       -1.43000459859874       -1.35397639311351
H            2.37560941838006       -2.61972299466689        0.14466701711206
H            0.76140012948231       -3.33646359925759        0.27099047198759
H            1.36961025954904       -2.26922047637871        1.54351792405645
H            0.81472177171946        0.19108257548786        2.05095052859975
H            2.23826285844473        2.11222607878854        2.61487285226701
H            3.81583894877961        3.02091290796757        0.94908546121386
H            3.96114869819379        1.98525725929989       -1.28936787048846
H            2.55159039062435        0.05485023795172       -1.84475536139432
35
 energy: -43.881383657977 gnorm: 0.002936120490 xtb: 6.7.1 (edcfbbe)
C           -1.49575747127783        1.88271342951979       -0.40967673155721
C           -1.14285595866966        0.92991915217446       -1.54189237978745
C           -1.50856640509855       -0.54795023961441       -1.20230570115038
C           -2.98069959305951       -0.65379692216690       -0.98471127211735
C           -3.51989615102580       -1.00707146702424        0.20618417478792
C           -2.70031014745242       -1.34216549573833        1.29553297441488
C           -1.31153034884912       -1.38687017549590        1.13184351498135
C           -0.70408078433075       -1.06692233932523       -0.04714118866305
C            0.77167006858415       -1.24763187434730       -0.28846766795761
C            1.35719131820619       -2.44706627744509        0.46979644803236
C            1.58279350838767       -0.01507386657294        0.05628200240370
C            1.49266862126208        0.57957144285247        1.30879074301137
C            2.28631543478932        1.66626212081984        1.63040368621402
C            3.17921472943300        2.17731962334056        0.70337610897702
C            3.26922185671823        1.59872948690059       -0.55067392719919
C            2.47693753831702        0.50971845071450       -0.86878587560283
H           -2.56067984802154        1.83984761644042       -0.19250064730296
H           -1.23614349257967        2.90357238564804       -0.68277759860089
H           -0.94942551461005        1.61884273151336        0.49270204619128
H           -0.07473896055960        0.99414556467548       -1.75225305699737
H           -1.68612729306990        1.21605804063090       -2.44523814426183
H           -1.24071700305507       -1.12358768407072       -2.10562835036546
H           -3.60981291491511       -0.39667497060119       -1.82457531745170
H           -4.59471159975048       -1.04704651872450        0.32104121017466
H           -3.13952966866872       -1.61657468567143        2.24094886016372
H           -0.71639926932877       -1.72701866413202        1.96666109335499
H            0.90553679370129       -1.43951354287151       -1.36080909973598
H            2.37849170589022       -2.62571399952905        0.14030676042142
H            0.76388662339094       -3.33892520802971        0.27894819932800
H            1.37979735626377       -2.26274523587618        1.54030936181377
H            0.79598820288672        0.19046343286921        2.03704753451798
H            2.21139033753073        2.11453080625161        2.61096978771086
H            3.80298207354138        3.02176613131845        0.95737907324068
H            3.96046345940927        1.99153869466080       -1.28259438283294
H            2.55753279601029        0.05755005690666       -1.84849223815542
35
 energy: -43.881466437069 gnorm: 0.002119316136 xtb: 6.7.1 (edcfbbe)
C           -1.48664550592127        1.87420943627403       -0.40399371542742
C           -1.13843069539473        0.92598130972642       -1.54080453483910
C           -1.50924749270356       -0.55037659036810       -1.20590224130664
C           -2.98136165145109       -0.65031954413603       -0.98309442032475
C           -3.51835358116509       -0.99343767217627        0.21131249632324
C           -2.69603739355363       -1.32884974879755        1.29856201907950
C           -1.30785852670459       -1.38880204998601        1.12793682294434
C           -0.70308171364573       -1.07422644369057       -0.05275108536192
C            0.77399716450601       -1.25449820945270       -0.29496951905451
C            1.36337057110890       -2.45022822231944        0.46604818309297
C            1.58091839649412       -0.01849162762322        0.05006254608067
C            1.48080994801210        0.57820070913654        1.30093458785987
C            2.26771235249234        1.66835757705969        1.62689997426860
C            3.16545799024723        2.18053905849199        0.70554412459551
C            3.26542290887400        1.60093458990135       -0.54703176094633
C            2.47902638410317        0.50871474811316       -0.86974974509245
H           -2.55017947704430        1.82851809286888       -0.18106547520877
H           -1.23046551175807        2.89639671841257       -0.67371903098646
H           -0.93502007853516        1.60800451416679        0.49429422506449
H           -0.07047342265189        0.98617304734141       -1.75185730760750
H           -1.68052271275029        1.21907997388593       -2.44275356452527
H           -1.24899638021163       -1.12733398292470       -2.10983592838800
H           -3.61246598452550       -0.39305931805018       -1.82136298076574
H           -4.59252401693136       -1.02430830425165        0.33342841484664
H           -3.13309606842815       -1.58965996319208        2.24901713592798
H           -0.71386446089864       -1.73382411383285        1.96052137226210
H            0.90882943417650       -1.44833331126795       -1.36681832629845
H            2.38219126728388       -2.63219690582624        0.12989171401070
H            0.76852755172124       -3.34316808110834        0.28504528818302
H            1.39533074290643       -2.26021503443183        1.53533775928652
H            0.78073112446305        0.18813303101169        2.02499538926973
H            2.18310802342908        2.11830813725463        2.60595059009983
H            3.78541136897717        3.02670547114553        0.96336345048442
H            3.96008772276925        1.99626566818848       -1.27444677118784
H            2.56779172270985        0.05700704045724       -1.84898968635854
35
 energy: -43.881525511925 gnorm: 0.001837088659 xtb: 6.7.1 (edcfbbe)
C           -1.47738205028285        1.86982136867615       -0.39945311718455
C           -1.13549574883024        0.92311561714928       -1.53941256528944
C           -1.50860641674972       -0.55165088681107       -1.20721544872186
C           -2.98040872877205       -0.64761323689884       -0.98103452296444
C           -3.51586421561796       -0.98011593785697        0.21706564182467
C           -2.69204332789030       -1.31686328176162        1.30225314160702
C           -1.30486823754179       -1.39184660266738        1.12524851373088
C           -0.70161119041007       -1.08071216231350       -0.05637595812640
C            0.77582725339932       -1.26116416677059       -0.30037438216806
C            1.36915837035065       -2.45474499076841        0.46060560412035
C            1.57931467176281       -0.02281153642518        0.04576346966707
C            1.46991984454046        0.57603911900801        1.29461056067815
C            2.24909658285055        1.67068568176596        1.62337216649101
C            3.15026335578993        2.18486093233592        0.70678684445799
C            3.26137716468981        1.60171404411203       -0.54303370415120
C            2.48174849241422        0.50555061012189       -0.86870435491633
H           -2.53939302557942        1.82290741665953       -0.16985546896504
H           -1.22386077294343        2.89231367987173       -0.66954208885681
H           -0.92000661492345        1.60333990780450        0.49500068522263
H           -0.06819012514010        0.98128360063926       -1.75410177216228
H           -1.67997129203268        1.22037947122434       -2.43860856367657
H           -1.25296445097935       -1.12879392694363       -2.11215401417669
H           -3.61205320066347       -0.39349574323536       -1.81983730865999
H           -4.58926273502645       -1.00437327393276        0.34492298538920
H           -3.12741500542237       -1.56474226428337        2.25731410802647
H           -0.71253722905495       -1.74416433808467        1.95634060909073
H            0.91044486405536       -1.45452201833250       -1.37218625732770
H            2.38502891200836       -2.63893818431213        0.11608265393121
H            0.77261145475564       -3.34806388884567        0.28826140536785
H            1.41105913218275       -2.26055584496047        1.52880680826481
H            0.76775381678693        0.18429396303817        2.01548878503137
H            2.15512254120014        2.12277067027076        2.60047296721547
H            3.76388013318597        3.03505763172695        0.96629300294066
H            3.95950864456806        1.99844802398172       -1.26627051616454
H            2.57991913331920        0.05279054681865       -1.84652990954518
35
 energy: -43.881575998929 gnorm: 0.001767815315 xtb: 6.7.1 (edcfbbe)
C           -1.46434320571957        1.86903612141476       -0.39515627675939
C           -1.13246089831304        0.92099549593772       -1.53755007629020
C           -1.50642517878596       -0.55260107548821       -1.20623530846911
C           -2.97762945907458       -0.64556598339625       -0.97747230559150
C           -3.51092227729268       -0.96613004214494        0.22503236061381
C           -2.68596738014792       -1.30465627252194        1.30792968768429
C           -1.30041652141475       -1.39488273057973        1.12448268830571
C           -0.69868348772805       -1.08707655179140       -0.05855889286785
C            0.77761854100302       -1.26922295581233       -0.30623029903023
C            1.37502346305841       -2.46256434620482        0.45155118440857
C            1.57773322194862       -0.02949181722685        0.04272378013476
C            1.45613082682679        0.57270395717022        1.28851593367638
C            2.22417723524893        1.67452215454229        1.61874102862821
C            3.12827178173728        2.19195476540610        0.70705393844674
C            3.25555676210368        1.60146441820351       -0.53783926483645
C            2.48603263508723        0.49888560944730       -0.86521091038875
H           -2.52424370562842        1.82250986761465       -0.15608884506753
H           -1.21308881641987        2.89088886889831       -0.66968483671817
H           -0.89903453160682        1.60418483044091        0.49461171372475
H           -0.06649324563179        0.97845535910697       -1.76019741217364
H           -1.68360330301967        1.22031267535878       -2.43201718199343
H           -1.25324487196902       -1.12839219432475       -2.11301548730405
H           -3.60948442981963       -0.39557798664569       -1.81760143617809
H           -4.58386386425795       -0.98098810118159        0.35871114959164
H           -3.11928159595072       -1.54065193024999        2.26710085131513
H           -0.70970929728527       -1.75844866229818        1.95319998904383
H            0.91068850886407       -1.45914538903746       -1.37866864688629
H            2.38679748941893       -2.64949019004472        0.09625656778800
H            0.77527873971999       -3.35496226049504        0.28801465838467
H            1.42874598471263       -2.26507969688431        1.51853477992452
H            0.75191702983029        0.17835271212674        2.00598849172737
H            2.11841036868299        2.13012290735892        2.59281797860455
H            3.73138138748151        3.04960310496192        0.96645081966395
H            3.95830683476220        1.99853015687412       -1.25619813188592
H            2.59692525957849        0.04260518146588       -1.83999228922580
35
 energy: -43.881602695467 gnorm: 0.001129209085 xtb: 6.7.1 (edcfbbe)
C           -1.45625410098656        1.87189223377720       -0.39474870659421
C           -1.13078582378414        0.92131134488529       -1.53722381546359
C           -1.50486749250009       -0.55285260368769       -1.20424264149431
C           -2.97598894322848       -0.64313402411556       -0.97380094498533
C           -3.50765060646927       -0.96110304913103        0.23005443478585
C           -2.68189342455380       -1.30298715056879        1.31145351638831
C           -1.29728525068068       -1.39691267868330        1.12564311687394
C           -0.69672477512178       -1.08950988870227       -0.05845285953038
C            0.77835691550556       -1.27252264491072       -0.30802275585677
C            1.37563044537854       -2.46834954504862        0.44603462270486
C            1.57752577632633       -0.03309847129490        0.04333369531830
C            1.44937436622953        0.57152129223060        1.28727901065013
C            2.21148593822295        1.67770188334160        1.61647554309422
C            3.11629530481294        2.19649610484559        0.70616126116642
C            3.25236855735296        1.60121181461192       -0.53554688453229
C            2.48856162653590        0.49452309992044       -0.86216821274245
H           -2.51504992968571        1.82755398270360       -0.15077222269131
H           -1.20466947683414        2.89280066406303       -0.67333630654912
H           -0.88708437218672        1.60856382686094        0.49297939993878
H           -0.06572814800367        0.97819053673599       -1.76538765244548
H           -1.68645832921857        1.21984728369833       -2.42916580152929
H           -1.25194302926163       -1.12737872509950       -2.11215646609771
H           -3.60838280995119       -0.39390937299694       -1.81375662302868
H           -4.58030496734137       -0.97463964191425        0.36378389472626
H           -3.11392455290270       -1.54025836050970        2.27052715145554
H           -0.70546616480330       -1.76165370455099        1.95360723630679
H            0.91027556337752       -1.45920514540511       -1.38118772365119
H            2.38564255041699       -2.65707132255260        0.08744679695774
H            0.77325630520328       -3.35896775637855        0.28336771474299
H            1.43265882131835       -2.27174399196659        1.51284219976358
H            0.74418662157098        0.17605911534965        2.00333868394524
H            2.09977459613149        2.13621537043937        2.58848253294950
H            3.71292151170541        3.05909196549989        0.96386835862877
H            3.95691625342368        1.99789776037789       -1.25225681542880
H            2.60533104400070        0.03461979817678       -1.83445273777584
35
 energy: -43.881623140234 gnorm: 0.001003789652 xtb: 6.7.1 (edcfbbe)
C           -1.44638651316365        1.87583396097157       -0.39582036467160
C           -1.12841655692308        0.92198908202921       -1.53772085816261
C           -1.50394476163785       -0.55254942458517       -1.20167277984782
C           -2.97465549425013       -0.64118796205030       -0.96887606308122
C           -3.50434098622440       -0.96145126798854        0.23501187013401
C           -2.67759616365418       -1.30550218610969        1.31512322284181
C           -1.29341783301347       -1.39751632604051        1.12796602626544
C           -0.69468010161375       -1.08972143650169       -0.05749206733553
C            0.77925031775465       -1.27516348751383       -0.30928274607727
C            1.37446021768970       -2.47533974906909        0.43995354418791
C            1.57815766621593       -0.03666206426290        0.04517180843379
C            1.44298653442005        0.57122015740025        1.28690191253720
C            2.19860502131440        1.68249187998773        1.61422694002378
C            3.10389909578457        2.20227745625443        0.70486403406399
C            3.24938786831401        1.60155869474392       -0.53318420181688
C            2.49181429643675        0.49006912694733       -0.85829157070140
H           -2.50414987876625        1.83529042217420       -0.14671076157810
H           -1.19316281095252        2.89542388914352       -0.67878276136580
H           -0.87353916132423        1.61383133345927        0.48994910509067
H           -0.06436741949951        0.97686744678513       -1.77181203830304
H           -1.68854669574827        1.21912199338010       -2.42730879649836
H           -1.25249507729318       -1.12642475764587       -2.11041851759461
H           -3.60850906117548       -0.38737750459377       -1.80643136843371
H           -4.57758299968405       -0.96967791134316        0.37007951181583