      -----------------------------------------------------------      
     |                   =====================                   |     
     |                           x T B                           |     
     |                   =====================                   |     
     |                         S. Grimme                         |     
     |          Mulliken Center for Theoretical Chemistry        |     
     |                    University of Bonn                     |     
      -----------------------------------------------------------      

   * xtb version 6.7.1 (edcfbbe) compiled by 'conda@c0858423619e' on 2025-09-04

   xtb is free software: you can redistribute it and/or modify it under
   the terms of the GNU Lesser General Public License as published by
   the Free Software Foundation, either version 3 of the License, or
   (at your option) any later version.
   
   xtb is distributed in the hope that it will be useful,
   but WITHOUT ANY WARRANTY; without even the implied warranty of
   MERCHANTABILITY or FITNESS FOR A PARTICULAR PURPOSE.  See the
   GNU Lesser General Public License for more details.
   
   Cite this work as:
   * C. Bannwarth, E. Caldeweyher, S. Ehlert, A. Hansen, P. Pracht,
     J. Seibert, S. Spicher, S. Grimme, WIREs Comput. Mol. Sci., 2020, 11,
     e01493. DOI: 10.1002/wcms.1493
   
   for GFN2-xTB:
   * C. Bannwarth, S. Ehlert and S. Grimme., J. Chem. Theory Comput., 2019,
     15, 1652-1671. DOI: 10.1021/acs.jctc.8b01176
   for GFN1-xTB:
   * S. Grimme, C. Bannwarth, P. Shushkov, J. Chem. Theory Comput., 2017,
     13, 1989-2009. DOI: 10.1021/acs.jctc.7b00118
   for GFN0-xTB:
   * P. Pracht, E. Caldeweyher, S. Ehlert, S. Grimme, ChemRxiv, 2019, preprint.
     DOI: 10.26434/chemrxiv.8326202.v1
   for GFN-FF:
   * S. Spicher and S. Grimme, Angew. Chem. Int. Ed., 2020, 59, 15665-15673.
     DOI: 10.1002/anie.202004239
   
   for ALPB and GBSA implicit solvation:
   * S. Ehlert, M. Stahn, S. Spicher, S. Grimme, J. Chem. Theory Comput.,
     2021, 17, 4250-4261. DOI: 10.1021/acs.jctc.1c00471
   
   for ddCOSMO and CPCM-X implicit solvation:
   * M. Stahn, S. Ehlert, S. Grimme, J. Phys. Chem. A,
     2023, XX, XXXX-XXXX. DOI: 10.1021/acs.jpca.3c04382
   
   for DFT-D4:
   * E. Caldeweyher, C. Bannwarth and S. Grimme, J. Chem. Phys., 2017,
     147, 034112. DOI: 10.1063/1.4993215
   * E. Caldeweyher, S. Ehlert, A. Hansen, H. Neugebauer, S. Spicher,
     C. Bannwarth and S. Grimme, J. Chem. Phys., 2019, 150, 154122.
     DOI: 10.1063/1.5090222
   * E. Caldeweyher, J.-M. Mewes, S. Ehlert and S. Grimme, Phys. Chem. Chem. Phys.
     2020, 22, 8499-8512. DOI: 10.1039/D0CP00502A
   
   for sTDA-xTB:
   * S. Grimme and C. Bannwarth, J. Chem. Phys., 2016, 145, 054103.
     DOI: 10.1063/1.4959605
   
   in the mass-spec context:
   * V. Asgeirsson, C. Bauer and S. Grimme, Chem. Sci., 2017, 8, 4879.
     DOI: 10.1039/c7sc00601b
   * J. Koopman and S. Grimme, ACS Omega 2019, 4, 12, 15120-15133.
     DOI: 10.1021/acsomega.9b02011
   
   for metadynamics refer to:
   * S. Grimme, J. Chem. Theory Comput., 2019, 155, 2847-2862
     DOI: 10.1021/acs.jctc.9b00143
   
   for SPH calculations refer to:
   * S. Spicher and S. Grimme, J. Chem. Theory Comput., 2021, 17, 1701-1714
     DOI: 10.1021/acs.jctc.0c01306
   
   for ONIOM refer to:
   * C. Plett, A. Katbashev, S. Ehlert, S. Grimme, M. Bursch,
     Phys. Chem. Chem. Phys., 2023, 25, 17860-17868. DOI: 10.1039/D3CP02178E
   
   for DIPRO refer to:
   * J. Kohn, N. Gildemeister, S. Grimme, D. Fazzi, A. Hansen,
     J. Chem. Phys., 2023, just accepted.
   
   for PTB refer to:
   * S. Grimme, M. Mueller, A. Hansen, J. Chem. Phys., 2023, 158, 124111.
     DOI: 10.1063/5.0137838
   
   with help from (in alphabetical order)
   P. Atkinson, C. Bannwarth, F. Bohle, G. Brandenburg, E. Caldeweyher
   M. Checinski, S. Dohm, S. Ehlert, S. Ehrlich, I. Gerasimov, C. Hölzer
   A. Katbashev, J. Kohn, J. Koopman, C. Lavigne, S. Lehtola, F. März, M. Müller,
   F. Musil, H. Neugebauer, J. Pisarek, C. Plett, P. Pracht, F. Pultar,
   J. Seibert, P. Shushkov, S. Spicher, M. Stahn, M. Steiner, T. Strunk,
   J. Stückrath, T. Rose, and J. Unsleber
   
 * started run on 2025/09/15 at 14:52:51.910     
   ID    Z sym.   atoms
    1    6 C      1-16
    2    1 H      17-35

           -------------------------------------------------
          |                Calculation Setup                |
           -------------------------------------------------

          program call               : /home/paufv/miniforge3/envs/htvs/bin/xtb gfn_opt.xyz --opt normal --parallel 4 --chrg 0 --uhf 0 --gfn2 --input xtb.inp
          coordinate file            : gfn_opt.xyz
          omp threads                :                     4

########################################################################
[WARNING] Please study the warnings concerning your input carefully
-3- set_opt: the key 'uhf' is not recognized by opt
-2- set_opt: the key 'charge' is not recognized by opt
-1- set_opt: the key 'method' is not recognized by opt
########################################################################

           -------------------------------------------------
          |                 G F N 2 - x T B                 |
           -------------------------------------------------

        Reference                      10.1021/acs.jctc.8b01176
      * Hamiltonian:
        H0-scaling (s, p, d)           1.850000    2.230000    2.230000
        zeta-weighting                 0.500000
      * Dispersion:
        s8                             2.700000
        a1                             0.520000
        a2                             5.000000
        s9                             5.000000
      * Repulsion:
        kExp                           1.500000    1.000000
        rExp                           1.000000
      * Coulomb:
        alpha                          2.000000
        third order                    shell-resolved
        anisotropic                    true
        a3                             3.000000
        a5                             4.000000
        cn-shift                       1.200000
        cn-exp                         4.000000
        max-rad                        5.000000

q/qsh data taken from xtbrestart
CAMM data taken from xtbrestart

          ...................................................
          :                      SETUP                      :
          :.................................................:
          :  # basis functions                  83          :
          :  # atomic orbitals                  83          :
          :  # shells                           51          :
          :  # electrons                        83          :
          :  max. iterations                   250          :
          :  Hamiltonian                  GFN2-xTB          :
          :  restarted?                       true          :
          :  GBSA solvation                  false          :
          :  PC potential                    false          :
          :  electronic temp.          300.0000000     K    :
          :  accuracy                    1.0000000          :
          :  -> integral cutoff          0.2500000E+02      :
          :  -> integral neglect         0.1000000E-07      :
          :  -> SCF convergence          0.1000000E-05 Eh   :
          :  -> wf. convergence          0.1000000E-03 e    :
          :  Broyden damping             0.4000000          :
          :  net charge                          0          :
          :  unpaired electrons                  0          :
          ...................................................

 iter      E             dE          RMSdq      gap      omega  full diag
   1    -44.6003617 -0.446004E+02  0.466E+00    1.70       0.0  T
   2    -44.6054947 -0.513298E-02  0.275E+00    1.98       1.0  T
   3    -44.5730182  0.324764E-01  0.950E-01    2.02       1.0  T
   4    -44.6094016 -0.363834E-01  0.148E-01    2.11       1.0  T
   5    -44.6096948 -0.293192E-03  0.835E-02    2.08       1.0  T
   6    -44.6097874 -0.925781E-04  0.312E-02    2.08       1.0  T
   7    -44.6097974 -0.100472E-04  0.107E-02    2.08       1.6  T
   8    -44.6097998 -0.238187E-05  0.359E-03    2.08       4.7  T
   9    -44.6097999 -0.119372E-06  0.150E-03    2.08      11.3  T
  10    -44.6097999 -0.990016E-08  0.618E-04    2.08      27.3  T
  11    -44.6097999 -0.809262E-08  0.224E-04    2.08      75.3  T

   *** convergence criteria satisfied after 11 iterations ***

         #    Occupation            Energy/Eh            Energy/eV
      -------------------------------------------------------------
         1        2.0000           -0.6394851             -17.4013
       ...           ...                  ...                  ...
        36        2.0000           -0.4206317             -11.4460
        37        2.0000           -0.4095818             -11.1453
        38        2.0000           -0.4057256             -11.0404
        39        2.0000           -0.3993105             -10.8658
        40        2.0000           -0.3943479             -10.7308
        41        2.0000           -0.3900350             -10.6134
        42        1.0000           -0.2989851              -8.1358 (HOMO)
        43                         -0.2225566              -6.0561 (LUMO)
        44                         -0.2225251              -6.0552
        45                         -0.2003371              -5.4514
        46                         -0.1287028              -3.5022
        47                         -0.0975941              -2.6557
       ...                                ...                  ...
        83                          0.6324965              17.2111
      -------------------------------------------------------------
                  HL-Gap            0.0764285 Eh            2.0797 eV
             Fermi-level           -0.3026404 Eh           -8.2353 eV

 SCC (total)                   0 d,  0 h,  0 min,  0.026 sec
 SCC setup                      ...        0 min,  0.000 sec (  0.433%)
 Dispersion                     ...        0 min,  0.000 sec (  0.983%)
 classical contributions        ...        0 min,  0.000 sec (  0.150%)
 integral evaluation            ...        0 min,  0.002 sec (  5.995%)
 iterations                     ...        0 min,  0.020 sec ( 75.779%)
 molecular gradient             ...        0 min,  0.004 sec ( 15.518%)
 printout                       ...        0 min,  0.000 sec (  1.109%)

         :::::::::::::::::::::::::::::::::::::::::::::::::::::
         ::                     SUMMARY                     ::
         :::::::::::::::::::::::::::::::::::::::::::::::::::::
         :: total energy             -43.871499731512 Eh    ::
         :: gradient norm              0.066666695663 Eh/a0 ::
         :: HOMO-LUMO gap              2.079725369079 eV    ::
         ::.................................................::
         :: SCC energy               -44.609175157999 Eh    ::
         :: -> isotropic ES            0.004135559595 Eh    ::
         :: -> anisotropic ES          0.009571109176 Eh    ::
         :: -> anisotropic XC          0.029842074417 Eh    ::
         :: -> dispersion             -0.035364573312 Eh    ::
         :: repulsion energy           0.737675426487 Eh    ::
         :: add. restraining           0.000000000000 Eh    ::
         :: total charge               0.000000000000 e     ::
         :::::::::::::::::::::::::::::::::::::::::::::::::::::

      ----------------------------------------------------------- 
     |                   =====================                   |
     |                        A N C O P T                        |
     |                   =====================                   |
     |               Approximate Normal Coordinate               |
     |                Rational Function Optimizer                |
      ----------------------------------------------------------- 
      ----------------------------------------------------------- 
     |                   =====================                   |
     |                        A N C O P T                        |
     |                   =====================                   |
     |               Approximate Normal Coordinate               |
     |                Rational Function Optimizer                |
      ----------------------------------------------------------- 

          ...................................................
          :                      SETUP                      :
          :.................................................:
          :   optimization level            normal          :
          :   max. optcycles                   200          :
          :   ANC micro-cycles                  20          :
          :   degrees of freedom                99          :
          :.................................................:
          :   RF solver                   davidson          :
          :   write xtbopt.log                true          :
          :   linear?                        false          :
          :   energy convergence         0.5000000E-05 Eh   :
          :   grad. convergence          0.1000000E-02 Eh/α :
          :   maxmium RF displ.          1.0000000          :
          :   Hlow (freq-cutoff)         0.1000000E-01      :
          :   Hmax (freq-cutoff)         5.0000000          :
          :   S6 in model hess.         20.0000000          :
          ...................................................

generating ANC from exact Hessian ...
Using Lindh-Hessian (1995)
 Shifting diagonal of input Hessian by    9.5640990237838130E-003
 Lowest  eigenvalues of input Hessian
    0.000000    0.000000    0.000000    0.000000    0.000000    0.000000
    0.010000    0.010331    0.010595    0.011248    0.012157    0.012840
    0.013812    0.015251    0.015600    0.017572    0.017964    0.020582
 Highest eigenvalues
    1.694120    1.823978    1.830331    1.908102    1.926928    1.939038


........................................................................
.............................. CYCLE    1 ..............................
........................................................................

 iter      E             dE          RMSdq      gap      omega  full diag
   1    -44.6097999 -0.446098E+02  0.115E-04    2.08       0.0  T
   2    -44.6097999 -0.301412E-10  0.758E-05    2.08     223.1  T
   3    -44.6097999 -0.522675E-10  0.521E-05    2.08     324.4  T
     SCC iter.                  ...        0 min,  0.003 sec
     gradient                   ...        0 min,  0.003 sec
 * total energy  :   -43.8714997 Eh     change       -0.1003947E-08 Eh
   gradient norm :     0.0666654 Eh/α   predicted     0.0000000E+00 (-100.00%)
   displ. norm   :     0.3313505 α      lambda       -0.1026169E-01
   maximum displ.:     0.1429000 α      in ANC's #19, #9, #16, ...

........................................................................
.............................. CYCLE    2 ..............................
........................................................................

 iter      E             dE          RMSdq      gap      omega  full diag
   1    -44.6487412 -0.446487E+02  0.186E-01    2.11       0.0  T
   2    -44.6487535 -0.123805E-04  0.113E-01    2.12       1.0  T
   3    -44.6486412  0.112320E-03  0.584E-02    2.11       1.0  T
   4    -44.6487708 -0.129531E-03  0.674E-03    2.11       2.5  T
   5    -44.6487718 -0.103481E-05  0.250E-03    2.11       6.8  T
   6    -44.6487718 -0.164810E-07  0.121E-03    2.11      13.9  T
   7    -44.6487718 -0.135035E-07  0.598E-04    2.11      28.3  T
   8    -44.6487718 -0.102909E-07  0.163E-04    2.11     104.0  T
     SCC iter.                  ...        0 min,  0.007 sec
     gradient                   ...        0 min,  0.003 sec
 * total energy  :   -43.8785516 Eh     change       -0.7051883E-02 Eh
   gradient norm :     0.0285748 Eh/α   predicted    -0.5696912E-02 ( -19.21%)
   displ. norm   :     0.3010225 α      lambda       -0.3007345E-02
   maximum displ.:     0.1774698 α      in ANC's #9, #19, #10, ...

........................................................................
.............................. CYCLE    3 ..............................
........................................................................

 iter      E             dE          RMSdq      gap      omega  full diag
   1    -44.6669758 -0.446670E+02  0.124E-01    2.11       0.0  T
   2    -44.6669807 -0.489313E-05  0.759E-02    2.12       1.0  T
   3    -44.6669178  0.629015E-04  0.439E-02    2.11       1.0  T
   4    -44.6669901 -0.722929E-04  0.535E-03    2.11       3.2  T
   5    -44.6669909 -0.780339E-06  0.177E-03    2.12       9.5  T
   6    -44.6669909 -0.714984E-08  0.928E-04    2.12      18.2  T
   7    -44.6669909 -0.174122E-07  0.327E-04    2.12      51.7  T
     SCC iter.                  ...        0 min,  0.006 sec
     gradient                   ...        0 min,  0.003 sec
 * total energy  :   -43.8803030 Eh     change       -0.1751432E-02 Eh
   gradient norm :     0.0064255 Eh/α   predicted    -0.1640611E-02 (  -6.33%)
   displ. norm   :     0.1788435 α      lambda       -0.4600123E-03
   maximum displ.:     0.1237472 α      in ANC's #9, #10, #2, ...

........................................................................
.............................. CYCLE    4 ..............................
........................................................................

 iter      E             dE          RMSdq      gap      omega  full diag
   1    -44.6670212 -0.446670E+02  0.589E-02    2.11       0.0  T
   2    -44.6670215 -0.273353E-06  0.357E-02    2.11       1.0  T
   3    -44.6670038  0.176437E-04  0.213E-02    2.11       1.0  T
   4    -44.6670238 -0.199330E-04  0.141E-03    2.11      12.0  T
   5    -44.6670238 -0.306912E-07  0.690E-04    2.11      24.5  T
   6    -44.6670238 -0.281737E-08  0.293E-04    2.11      57.6  T
     SCC iter.                  ...        0 min,  0.005 sec
     gradient                   ...        0 min,  0.003 sec
 * total energy  :   -43.8806277 Eh     change       -0.3246932E-03 Eh
   gradient norm :     0.0040344 Eh/α   predicted    -0.2373653E-03 ( -26.90%)
   displ. norm   :     0.1906341 α      lambda       -0.2555037E-03
   maximum displ.:     0.1192306 α      in ANC's #9, #2, #8, ...

........................................................................
.............................. CYCLE    5 ..............................
........................................................................

 iter      E             dE          RMSdq      gap      omega  full diag
   1    -44.6657434 -0.446657E+02  0.567E-02    2.11       0.0  T
   2    -44.6657437 -0.249997E-06  0.336E-02    2.11       1.0  T
   3    -44.6657343  0.938753E-05  0.153E-02    2.11       1.1  T
   4    -44.6657447 -0.103550E-04  0.108E-03    2.11      15.6  T
   5    -44.6657447 -0.143343E-07  0.594E-04    2.11      28.5  T
   6    -44.6657447 -0.269779E-08  0.264E-04    2.11      63.9  T
     SCC iter.                  ...        0 min,  0.005 sec
     gradient                   ...        0 min,  0.003 sec
 * total energy  :   -43.8807874 Eh     change       -0.1596829E-03 Eh
   gradient norm :     0.0028175 Eh/α   predicted    -0.1323949E-03 ( -17.09%)
   displ. norm   :     0.1064249 α      lambda       -0.6996775E-04
   maximum displ.:     0.0650879 α      in ANC's #2, #9, #4, ...

........................................................................
.............................. CYCLE    6 ..............................
........................................................................

 iter      E             dE          RMSdq      gap      omega  full diag
   1    -44.6656650 -0.446657E+02  0.299E-02    2.11       0.0  T
   2    -44.6656650 -0.646421E-07  0.176E-02    2.11       1.0  T
   3    -44.6656646  0.472002E-06  0.345E-03    2.11       4.9  T
   4    -44.6656651 -0.527868E-06  0.464E-04    2.11      36.5  T
   5    -44.6656651 -0.325139E-08  0.263E-04    2.11      64.3  T
     SCC iter.                  ...        0 min,  0.004 sec
     gradient                   ...        0 min,  0.003 sec
 * total energy  :   -43.8808391 Eh     change       -0.5163383E-04 Eh
   gradient norm :     0.0019966 Eh/α   predicted    -0.3538477E-04 ( -31.47%)
   displ. norm   :     0.1567994 α      lambda       -0.5370477E-04
   maximum displ.:     0.1078378 α      in ANC's #2, #4, #5, ...

........................................................................
.............................. CYCLE    7 ..............................
........................................................................

 iter      E             dE          RMSdq      gap      omega  full diag
   1    -44.6661651 -0.446662E+02  0.514E-02    2.12       0.0  T
   2    -44.6661653 -0.131120E-06  0.302E-02    2.12       1.0  T
   3    -44.6661651  0.179134E-06  0.237E-03    2.12       7.1  T
   4    -44.6661653 -0.232551E-06  0.669E-04    2.12      25.3  T
   5    -44.6661653 -0.947268E-08  0.364E-04    2.12      46.5  T
     SCC iter.                  ...        0 min,  0.004 sec
     gradient                   ...        0 min,  0.003 sec
 * total energy  :   -43.8808906 Eh     change       -0.5151412E-04 Eh
   gradient norm :     0.0016664 Eh/α   predicted    -0.2714609E-04 ( -47.30%)
   displ. norm   :     0.0970921 α      lambda       -0.2750919E-04
   maximum displ.:     0.0699567 α      in ANC's #2, #4, #3, ...

........................................................................
.............................. CYCLE    8 ..............................
........................................................................

 iter      E             dE          RMSdq      gap      omega  full diag
   1    -44.6665660 -0.446666E+02  0.395E-02    2.12       0.0  T
   2    -44.6665661 -0.608973E-07  0.233E-02    2.12       1.0  T
   3    -44.6665657  0.379718E-06  0.297E-03    2.12       5.7  T
   4    -44.6665661 -0.430698E-06  0.462E-04    2.12      36.6  T
   5    -44.6665661 -0.266067E-08  0.247E-04    2.12      68.4  T
     SCC iter.                  ...        0 min,  0.004 sec
     gradient                   ...        0 min,  0.003 sec
 * total energy  :   -43.8809250 Eh     change       -0.3439598E-04 Eh
   gradient norm :     0.0013350 Eh/α   predicted    -0.1381754E-04 ( -59.83%)
   displ. norm   :     0.1584281 α      lambda       -0.3966397E-04
   maximum displ.:     0.1062540 α      in ANC's #2, #4, #3, ...

........................................................................
.............................. CYCLE    9 ..............................
........................................................................

 iter      E             dE          RMSdq      gap      omega  full diag
   1    -44.6664901 -0.446665E+02  0.654E-02    2.12       0.0  T
   2    -44.6664902 -0.112424E-06  0.385E-02    2.12       1.0  T
   3    -44.6664887  0.147694E-05  0.604E-03    2.12       2.8  T
   4    -44.6664904 -0.163930E-05  0.564E-04    2.12      29.9  T
   5    -44.6664904 -0.378584E-09  0.317E-04    2.12      53.2  T
   6    -44.6664904 -0.124308E-08  0.831E-05    2.12     203.5  T
     SCC iter.                  ...        0 min,  0.005 sec
     gradient                   ...        0 min,  0.003 sec
 * total energy  :   -43.8809709 Eh     change       -0.4592336E-04 Eh
   gradient norm :     0.0014234 Eh/α   predicted    -0.2005410E-04 ( -56.33%)
   displ. norm   :     0.1982806 α      lambda       -0.3576220E-04
   maximum displ.:     0.1306941 α      in ANC's #2, #3, #4, ...

........................................................................
.............................. CYCLE   10 ..............................
........................................................................

 iter      E             dE          RMSdq      gap      omega  full diag
   1    -44.6661354 -0.446661E+02  0.807E-02    2.12       0.0  T
   2    -44.6661356 -0.202396E-06  0.474E-02    2.12       1.0  T
   3    -44.6661348  0.824004E-06  0.468E-03    2.12       3.6  T
   4    -44.6661357 -0.973552E-06  0.803E-04    2.12      21.1  T
   5    -44.6661357 -0.502484E-08  0.433E-04    2.12      39.0  T
     SCC iter.                  ...        0 min,  0.004 sec
     gradient                   ...        0 min,  0.003 sec
 * total energy  :   -43.8810092 Eh     change       -0.3833551E-04 Eh
   gradient norm :     0.0015349 Eh/α   predicted    -0.1819590E-04 ( -52.54%)
   displ. norm   :     0.1641951 α      lambda       -0.2063486E-04
   maximum displ.:     0.1085811 α      in ANC's #2, #3, #4, ...

........................................................................
.............................. CYCLE   11 ..............................
........................................................................

 iter      E             dE          RMSdq      gap      omega  full diag
   1    -44.6662206 -0.446662E+02  0.653E-02    2.12       0.0  T
   2    -44.6662207 -0.141810E-06  0.383E-02    2.12       1.0  T
   3    -44.6662205  0.265714E-06  0.295E-03    2.12       5.7  T
   4    -44.6662208 -0.337734E-06  0.687E-04    2.12      24.6  T
   5    -44.6662208 -0.738266E-08  0.339E-04    2.12      49.9  T
     SCC iter.                  ...        0 min,  0.004 sec
     gradient                   ...        0 min,  0.003 sec
 * total energy  :   -43.8810313 Eh     change       -0.2207177E-04 Eh
   gradient norm :     0.0008959 Eh/α   predicted    -0.1044357E-04 ( -52.68%)
   displ. norm   :     0.1179207 α      lambda       -0.1052294E-04
   maximum displ.:     0.0766805 α      in ANC's #2, #3, #4, ...

........................................................................
.............................. CYCLE   12 ..............................
........................................................................

 iter      E             dE          RMSdq      gap      omega  full diag
   1    -44.6663874 -0.446664E+02  0.456E-02    2.12       0.0  T
   2    -44.6663875 -0.674557E-07  0.268E-02    2.12       1.0  T
   3    -44.6663875  0.109056E-07  0.109E-03    2.12      15.5  T
   4    -44.6663875 -0.401481E-07  0.451E-04    2.12      37.4  T
   5    -44.6663875 -0.275622E-08  0.239E-04    2.12      70.8  T
     SCC iter.                  ...        0 min,  0.004 sec
     gradient                   ...        0 min,  0.003 sec
 * total energy  :   -43.8810430 Eh     change       -0.1168808E-04 Eh
   gradient norm :     0.0005538 Eh/α   predicted    -0.5295841E-05 ( -54.69%)
   displ. norm   :     0.0894664 α      lambda       -0.7718899E-05
   maximum displ.:     0.0617708 α      in ANC's #3, #2, #5, ...

........................................................................
.............................. CYCLE   13 ..............................
........................................................................

 iter      E             dE          RMSdq      gap      omega  full diag
   1    -44.6666208 -0.446666E+02  0.317E-02    2.12       0.0  T
   2    -44.6666208 -0.362412E-07  0.186E-02    2.12       1.0  T
   3    -44.6666208  0.247694E-07  0.110E-03    2.12      15.3  T
   4    -44.6666208 -0.399600E-07  0.380E-04    2.12      44.5  T
   5    -44.6666208 -0.251319E-08  0.189E-04    2.12      89.3  T
     SCC iter.                  ...        0 min,  0.004 sec
     gradient                   ...        0 min,  0.003 sec
 * total energy  :   -43.8810519 Eh     change       -0.8920051E-05 Eh
   gradient norm :     0.0006426 Eh/α   predicted    -0.3877233E-05 ( -56.53%)
   displ. norm   :     0.0812212 α      lambda       -0.7371158E-05
   maximum displ.:     0.0595128 α      in ANC's #3, #2, #1, ...

........................................................................
.............................. CYCLE   14 ..............................
........................................................................

 iter      E             dE          RMSdq      gap      omega  full diag
   1    -44.6667695 -0.446668E+02  0.243E-02    2.12       0.0  T
   2    -44.6667695 -0.224602E-07  0.143E-02    2.12       1.2  T
   3    -44.6667694  0.305682E-07  0.105E-03    2.12      16.1  T
   4    -44.6667695 -0.415430E-07  0.305E-04    2.12      55.5  T
   5    -44.6667695 -0.125385E-08  0.143E-04    2.12     117.9  T
     SCC iter.                  ...        0 min,  0.004 sec
     gradient                   ...        0 min,  0.003 sec
 * total energy  :   -43.8810611 Eh     change       -0.9180753E-05 Eh
   gradient norm :     0.0005698 Eh/α   predicted    -0.3698094E-05 ( -59.72%)
   displ. norm   :     0.0812552 α      lambda       -0.6749299E-05
   maximum displ.:     0.0600729 α      in ANC's #3, #1, #2, ...

........................................................................
.............................. CYCLE   15 ..............................
........................................................................

 iter      E             dE          RMSdq      gap      omega  full diag
   1    -44.6666942 -0.446667E+02  0.207E-02    2.12       0.0  T
   2    -44.6666943 -0.182116E-07  0.122E-02    2.12       1.4  T
   3    -44.6666942  0.729369E-07  0.144E-03    2.12      11.8  T
   4    -44.6666943 -0.854432E-07  0.260E-04    2.12      65.1  T
   5    -44.6666943 -0.484363E-09  0.121E-04    2.12     139.9  T
     SCC iter.                  ...        0 min,  0.004 sec
     gradient                   ...        0 min,  0.003 sec
 * total energy  :   -43.8810695 Eh     change       -0.8407457E-05 Eh
   gradient norm :     0.0003827 Eh/α   predicted    -0.3385668E-05 ( -59.73%)
   displ. norm   :     0.0738743 α      lambda       -0.5041569E-05
   maximum displ.:     0.0536011 α      in ANC's #3, #1, #4, ...

........................................................................
.............................. CYCLE   16 ..............................
........................................................................

 iter      E             dE          RMSdq      gap      omega  full diag
   1    -44.6667243 -0.446667E+02  0.165E-02    2.12       0.0  T
   2    -44.6667243 -0.113710E-07  0.971E-03    2.12       1.7  T
   3    -44.6667242  0.895585E-07  0.151E-03    2.12      11.2  T
   4    -44.6667243 -0.100828E-06  0.213E-04    2.12      79.3  T
   5    -44.6667243 -0.237527E-09  0.113E-04    2.12     149.7  T
     SCC iter.                  ...        0 min,  0.004 sec
     gradient                   ...        0 min,  0.003 sec
 * total energy  :   -43.8810757 Eh     change       -0.6165723E-05 Eh
   gradient norm :     0.0003284 Eh/α   predicted    -0.2531849E-05 ( -58.94%)
   displ. norm   :     0.0656496 α      lambda       -0.3709451E-05
   maximum displ.:     0.0469166 α      in ANC's #3, #1, #4, ...

........................................................................
.............................. CYCLE   17 ..............................
........................................................................

 iter      E             dE          RMSdq      gap      omega  full diag
   1    -44.6666238 -0.446666E+02  0.141E-02    2.12       0.0  T
   2    -44.6666238 -0.840230E-08  0.831E-03    2.12       2.0  T
   3    -44.6666237  0.147780E-06  0.190E-03    2.12       8.9  T
   4    -44.6666238 -0.162633E-06  0.178E-04    2.12      94.9  T
   5    -44.6666238  0.543565E-11  0.112E-04    2.12     151.3  T
     SCC iter.                  ...        0 min,  0.004 sec
     gradient                   ...        0 min,  0.003 sec
 * total energy  :   -43.8810801 Eh     change       -0.4442151E-05 Eh
   gradient norm :     0.0003264 Eh/α   predicted    -0.1861698E-05 ( -58.09%)
   displ. norm   :     0.0602530 α      lambda       -0.2883586E-05
   maximum displ.:     0.0422119 α      in ANC's #3, #1, #4, ...

   *** GEOMETRY OPTIMIZATION CONVERGED AFTER 17 ITERATIONS ***

------------------------------------------------------------------------
 total energy gain   :        -0.0095804 Eh       -6.0118 kcal/mol
 total RMSD          :         0.2809418 a0        0.1487 Å
 total power (kW/mol):        -1.4796035 (step) -148.0055 (real)
------------------------------------------------------------------------

 ANCopt (total)                0 d,  0 h,  0 min,  0.170 sec
 optimizer setup                ...        0 min,  0.000 sec (  0.034%)
 model hessian                  ...        0 min,  0.010 sec (  5.857%)
 ANC generation                 ...        0 min,  0.001 sec (  0.479%)
 coordinate transformation      ...        0 min,  0.000 sec (  0.061%)
 single point calculation       ...        0 min,  0.157 sec ( 92.156%)
 optimization log               ...        0 min,  0.001 sec (  0.659%)
 hessian update                 ...        0 min,  0.000 sec (  0.088%)
 rational function              ...        0 min,  0.001 sec (  0.445%)

================
 final structure:
================
35
 xtb: 6.7.1 (edcfbbe)
C           -3.22791051723028        0.61102366210451       -0.41209078260320
C           -2.05872393455228        0.15484475051258       -1.27292944964993
C           -1.08402941428749       -0.77234472427306       -0.49012015692845
C           -1.76228591667718       -2.07264071370586       -0.21597382592259
C           -2.00968305979477       -2.52355627832248        1.03665692663669
C           -1.58259573429982       -1.79778479766430        2.15806882458979
C           -0.83914012540897       -0.62314866088422        1.98437984601719
C           -0.55482878581256       -0.11391455238587        0.75375936039529
C            0.31776386885960        1.09434501444441        0.52838630537326
C            0.79430615149965        1.78925263100139        1.80677880733992
C            1.52587146419483        0.70042826859479       -0.29627368339743
C            2.30044084370961       -0.38998125960275        0.08183687660257
C            3.41422371921287       -0.75036117747441       -0.65358144783842
C            3.76974161501176       -0.02439619962439       -1.77847048783722
C            3.00540299799254        1.06347036083562       -2.16138301818944
C            1.89042626306551        1.42262718572768       -1.42356363235117
H           -3.91506034957753        1.21952663672374       -0.99630859412887
H           -2.87581164362568        1.19862747490670        0.43272659523039
H           -3.76843122535143       -0.24897171486603       -0.02408898936084
H           -1.51213134901158        1.02035443836521       -1.65027693289342
H           -2.43386458866695       -0.39920813009042       -2.13604236395129
H           -0.24015973577996       -0.95241399236224       -1.17851859795881
H           -2.08467390045231       -2.63406851558914       -1.08101101280496
H           -2.53215148437983       -3.45897201524147        1.18281752387188
H           -1.79423514356212       -2.15824891120327        3.15204517680847
H           -0.47479728114682       -0.12757420801336        2.87206514636942
H           -0.25573068563549        1.83150271253945       -0.04754584545541
H            1.41378169527529        1.12482929319793        2.40392419516568
H            1.39144944913676        2.65990716784641        1.54194728378089
H           -0.05196783945954        2.12193629792006        2.40356267380524
H            2.01679598610002       -0.96375812160121        0.95260565326917
H            4.00622957917224       -1.60169403025651       -0.35033499313326
H            4.63810362546510       -0.30730165881866       -2.35512098526721
H            3.27584633815277        1.63367404391096       -3.03839660673224
H            1.29782911786484        2.27398972334584       -1.72972978885055

 Bond Distances (Angstroems)
 ---------------------------
C1-C2=1.5219         C1-H17=1.0880        C1-H18=1.0876        C1-H19=1.0873        C2-C1=1.5219         C2-C3=1.5564         
C2-H20=1.0910        C2-H21=1.0921        C3-C2=1.5564         C3-C4=1.4920         C3-C8=1.5036         C3-H22=1.1038        
C4-C3=1.4920         C4-C5=1.3541         C4-H23=1.0805        C5-C4=1.3541         C5-C6=1.4024         C5-H24=1.0814        
C6-C5=1.4024         C6-C7=1.4010         C6-H25=1.0783        C7-C6=1.4010         C7-C8=1.3618         C7-H26=1.0800        
C8-C3=1.5036         C8-C7=1.3618         C8-C9=1.5073         C9-C8=1.5073         C9-C10=1.5311        C9-C11=1.5148        
C9-H27=1.0973        C10-C9=1.5311        C10-H28=1.0871       C10-H29=1.0885       C10-H30=1.0877       C11-C9=1.5148        
C11-C12=1.3899       C11-C16=1.3875       C12-C11=1.3899       C12-C13=1.3825       C12-H31=1.0807       C13-C12=1.3825       
C13-C14=1.3852       C13-H32=1.0804       C14-C13=1.3852       C14-C15=1.3836       C14-H33=1.0801       C15-C14=1.3836       
C15-C16=1.3844       C15-H34=1.0805       C16-C11=1.3875       C16-C15=1.3844       C16-H35=1.0815       H17-C1=1.0880        
H18-C1=1.0876        H19-C1=1.0873        H20-C2=1.0910        H21-C2=1.0921        H22-C3=1.1038        H23-C4=1.0805        
H24-C5=1.0814        H25-C6=1.0783        H26-C7=1.0800        H27-C9=1.0973        H28-C10=1.0871       H29-C10=1.0885       
H30-C10=1.0877       H31-C12=1.0807       H32-C13=1.0804       H33-C14=1.0801       H34-C15=1.0805       H35-C16=1.0815       
 C  H  Rav=1.0860 sigma=0.0066  Rmin=1.0783  Rmax=1.1038    19
 C  C  Rav=1.4388 sigma=0.0685  Rmin=1.3541  Rmax=1.5564    17

 selected bond angles (degree)
 --------------------
H17-C1-C2=110.43               H18-C1-C2=110.65               H18-C1-H17=108.63              H19-C1-C2=110.28               
H19-C1-H17=108.66              H19-C1-H18=108.12              C3-C2-C1=112.04                H20-C2-C1=110.04               
H20-C2-C3=109.44               H21-C2-C1=109.59               H21-C2-C3=108.08               H21-C2-H20=107.53              
C4-C3-C2=109.08                C8-C3-C2=112.06                C8-C3-C4=112.93                H22-C3-C2=105.20               
H22-C3-C4=108.66               H22-C3-C8=108.56               C5-C4-C3=122.91                H23-C4-C3=116.19               
H23-C4-C5=120.87               C6-C5-C4=120.78                H24-C5-C4=120.09               H24-C5-C6=119.13               
C7-C6-C5=119.76                H25-C6-C5=120.29               H25-C6-C7=119.92               C8-C7-C6=122.44                
H26-C7-C6=117.51               H26-C7-C8=120.05               C7-C8-C3=120.69                C9-C8-C3=115.54                
C9-C8-C7=123.76                C10-C9-C8=114.78               C11-C9-C8=109.55               C11-C9-C10=108.93              
H27-C9-C8=108.33               H27-C9-C10=107.22              H27-C9-C11=107.81              H28-C10-C9=111.01              
H29-C10-C9=109.31              H29-C10-H28=108.05             H30-C10-C9=110.78              H30-C10-H28=109.20             
H30-C10-H29=108.40             

 selected dihedral angles (degree)
 ---------------------------------
C3-C2-C1-H17=182.56           C3-C2-C1-H18= 62.25           C3-C2-C1-H19=302.67           H20-C2-C1-H17= 60.56          
H20-C2-C1-H18=300.26          H20-C2-C1-H19=180.68          H21-C2-C1-H17=302.52          H21-C2-C1-H18=182.21          
H21-C2-C1-H19= 62.64          C4-C3-C2-C1= 68.95            C4-C3-C2-H20=191.29           C4-C3-C2-H21=308.12           
C8-C3-C2-C1=303.15            C8-C3-C2-H20= 65.49           C8-C3-C2-H21=182.31           H22-C3-C2-C1=185.37           
H22-C3-C2-H20=307.71          H22-C3-C2-H21= 64.53          C5-C4-C3-C2=242.07            C5-C4-C3-C8=  7.38            
C5-C4-C3-H22=127.88           H23-C4-C3-C2= 59.98           H23-C4-C3-C8=185.28           H23-C4-C3-H22=305.79          
C6-C5-C4-C3=357.39            C6-C5-C4-H23=179.57           H24-C5-C4-C3=178.09           H24-C5-C4-H23=  0.28          
C7-C6-C5-C4=357.12            C7-C6-C5-H24=176.42           H25-C6-C5-C4=179.26           H25-C6-C5-H24=358.56          
C8-C7-C6-C5=  2.88            C8-C7-C6-H25=180.75           H26-C7-C6-C5=183.85           H26-C7-C6-H25=  1.71          
C7-C8-C3-C2=116.44            C7-C8-C3-C4=352.76            C7-C8-C3-H22=232.19           C9-C8-C3-C2=294.90            
C9-C8-C3-C4=171.23            C9-C8-C3-H22= 50.66           C3-C8-C7-C6=  2.55            C3-C8-C7-H26=181.57           
C9-C8-C7-C6=184.22            C9-C8-C7-H26=  3.23           C10-C9-C8-C3=177.32           C10-C9-C8-C7=355.73           
C11-C9-C8-C3=300.20           C11-C9-C8-C7=118.62           H27-C9-C8-C3= 57.56           H27-C9-C8-C7=235.97           
H28-C10-C9-C8= 62.41          H28-C10-C9-C11=299.19         H28-C10-C9-H27=182.79         H29-C10-C9-C8=181.52          
H29-C10-C9-C11= 58.29         H29-C10-C9-H27=301.89         H30-C10-C9-C8=300.90          H30-C10-C9-C11=177.68         
H30-C10-C9-H27= 61.28         
           -------------------------------------------------
          |                Final Singlepoint                |
           -------------------------------------------------

          ...................................................
          :                      SETUP                      :
          :.................................................:
          :  # basis functions                  83          :
          :  # atomic orbitals                  83          :
          :  # shells                           51          :
          :  # electrons                        83          :
          :  max. iterations                   250          :
          :  Hamiltonian                  GFN2-xTB          :
          :  restarted?                      false          :
          :  GBSA solvation                  false          :
          :  PC potential                    false          :
          :  electronic temp.          300.0000000     K    :
          :  accuracy                    1.0000000          :
          :  -> integral cutoff          0.2500000E+02      :
          :  -> integral neglect         0.1000000E-07      :
          :  -> SCF convergence          0.1000000E-05 Eh   :
          :  -> wf. convergence          0.1000000E-03 e    :
          :  Broyden damping             0.4000000          :
          :  net charge                          0          :
          :  unpaired electrons                  0          :
          ...................................................

 iter      E             dE          RMSdq      gap      omega  full diag
   1    -44.6666238 -0.446666E+02  0.365E-05    2.12       0.0  T
   2    -44.6666238 -0.529354E-11  0.284E-05    2.12     595.2  T
   3    -44.6666238 -0.245137E-10  0.109E-05    2.12    1552.7  T

   *** convergence criteria satisfied after 3 iterations ***

         #    Occupation            Energy/Eh            Energy/eV
      -------------------------------------------------------------
         1        2.0000           -0.6440661             -17.5259
       ...           ...                  ...                  ...
        36        2.0000           -0.4199705             -11.4280
        37        2.0000           -0.4096358             -11.1468
        38        2.0000           -0.4064810             -11.0609
        39        2.0000           -0.4015763             -10.9274
        40        2.0000           -0.3937877             -10.7155
        41        2.0000           -0.3888212             -10.5804
        42        1.0000           -0.2983454              -8.1184 (HOMO)
        43                         -0.2203038              -5.9948 (LUMO)
        44                         -0.2200246              -5.9872
        45                         -0.2021600              -5.5011
        46                         -0.1201670              -3.2699
        47                         -0.0907683              -2.4699
       ...                                ...                  ...
        83                          0.6668095              18.1448
      -------------------------------------------------------------
                  HL-Gap            0.0780416 Eh            2.1236 eV
             Fermi-level           -0.3014539 Eh           -8.2030 eV

 SCC (total)                   0 d,  0 h,  0 min,  0.007 sec
 SCC setup                      ...        0 min,  0.000 sec (  0.842%)
 Dispersion                     ...        0 min,  0.000 sec (  1.361%)
 classical contributions        ...        0 min,  0.000 sec (  0.320%)
 integral evaluation            ...        0 min,  0.001 sec ( 13.942%)
 iterations                     ...        0 min,  0.003 sec ( 37.110%)
 molecular gradient             ...        0 min,  0.003 sec ( 42.801%)
 printout                       ...        0 min,  0.000 sec (  3.504%)

         :::::::::::::::::::::::::::::::::::::::::::::::::::::
         ::                     SUMMARY                     ::
         :::::::::::::::::::::::::::::::::::::::::::::::::::::
         :: total energy             -43.881080102448 Eh    ::
         :: gradient norm              0.000326287187 Eh/a0 ::
         :: HOMO-LUMO gap              2.123619355020 eV    ::
         ::.................................................::
         :: SCC energy               -44.665979935946 Eh    ::
         :: -> isotropic ES            0.004331408176 Eh    ::
         :: -> anisotropic ES          0.008755105592 Eh    ::
         :: -> anisotropic XC          0.028558594725 Eh    ::
         :: -> dispersion             -0.036479906878 Eh    ::
         :: repulsion energy           0.784899833498 Eh    ::
         :: add. restraining           0.000000000000 Eh    ::
         :: total charge              -0.000000000000 e     ::
         :::::::::::::::::::::::::::::::::::::::::::::::::::::

           -------------------------------------------------
          |                Property Printout                |
           -------------------------------------------------

    * Orbital Energies and Occupations

         #    Occupation            Energy/Eh            Energy/eV
      -------------------------------------------------------------
         1        2.0000           -0.6440661             -17.5259
       ...           ...                  ...                  ...
        30        2.0000           -0.4513710             -12.2824
        31        2.0000           -0.4462437             -12.1429
        32        2.0000           -0.4410965             -12.0028
        33        2.0000           -0.4360109             -11.8645
        34        2.0000           -0.4291810             -11.6786
        35        2.0000           -0.4219238             -11.4811
        36        2.0000           -0.4199705             -11.4280
        37        2.0000           -0.4096358             -11.1468
        38        2.0000           -0.4064810             -11.0609
        39        2.0000           -0.4015763             -10.9274
        40        2.0000           -0.3937877             -10.7155
        41        2.0000           -0.3888212             -10.5804
        42        1.0000           -0.2983454              -8.1184 (HOMO)
        43                         -0.2203038              -5.9948 (LUMO)
        44                         -0.2200246              -5.9872
        45                         -0.2021600              -5.5011
        46                         -0.1201670              -3.2699
        47                         -0.0907683              -2.4699
        48                          0.0640128               1.7419
        49                          0.0893710               2.4319
        50                          0.0983564               2.6764
        51                          0.1060814               2.8866
        52                          0.1122535               3.0546
        53                          0.1277782               3.4770
       ...                                ...                  ...
        83                          0.6668095              18.1448
      -------------------------------------------------------------
                  HL-Gap            0.0780416 Eh            2.1236 eV
             Fermi-level           -0.3014539 Eh           -8.2030 eV

     #   Z          covCN         q      C6AA      α(0)
     1   6 C        3.751    -0.100    22.465     6.759
     2   6 C        3.803    -0.048    21.432     6.591
     3   6 C        3.860    -0.016    20.819     6.489
     4   6 C        2.910    -0.042    29.044     8.837
     5   6 C        2.902    -0.033    28.815     8.802
     6   6 C        2.916    -0.046    29.140     8.852
     7   6 C        2.905    -0.040    28.990     8.829
     8   6 C        2.960     0.000    28.022     8.683
     9   6 C        3.860    -0.023    20.939     6.508
    10   6 C        3.756    -0.099    22.447     6.755
    11   6 C        2.978     0.013    27.712     8.635
    12   6 C        2.925    -0.035    28.869     8.811
    13   6 C        2.919    -0.031    28.766     8.795
    14   6 C        2.920    -0.033    28.829     8.805
    15   6 C        2.919    -0.031    28.777     8.797
    16   6 C        2.924    -0.038    28.957     8.825
    17   1 H        0.925     0.033     2.548     2.496
    18   1 H        0.925     0.036     2.509     2.477
    19   1 H        0.925     0.038     2.474     2.460
    20   1 H        0.924     0.030     2.588     2.516
    21   1 H        0.924     0.032     2.554     2.499
    22   1 H        0.923     0.043     2.410     2.428
    23   1 H        0.926     0.021     2.714     2.576
    24   1 H        0.925     0.023     2.694     2.567
    25   1 H        0.926     0.021     2.717     2.577
    26   1 H        0.926     0.029     2.594     2.519
    27   1 H        0.924     0.043     2.410     2.428
    28   1 H        0.925     0.039     2.461     2.453
    29   1 H        0.925     0.034     2.525     2.485
    30   1 H        0.925     0.038     2.477     2.461
    31   1 H        0.926     0.032     2.562     2.503
    32   1 H        0.926     0.028     2.609     2.526
    33   1 H        0.926     0.028     2.618     2.530
    34   1 H        0.926     0.028     2.616     2.529
    35   1 H        0.925     0.025     2.660     2.550

 Mol. C6AA /au·bohr⁶  :      12655.046810
 Mol. C8AA /au·bohr⁸  :     299425.275540
 Mol. α(0) /au        :        177.353192


Wiberg/Mayer (AO) data.
largest (>0.10) Wiberg bond orders for each atom

 ---------------------------------------------------------------------------
     #   Z sym  total        # sym  WBO       # sym  WBO       # sym  WBO
 ---------------------------------------------------------------------------
     1   6 C    3.997 --     2 C    1.022    18 H    0.986    19 H    0.986
                            17 H    0.986
     2   6 C    3.993 --     1 C    1.022    21 H    0.977    20 H    0.974
                             3 C    0.936
     3   6 C    3.996 --     4 C    1.038     8 C    1.020     2 C    0.936
                            22 H    0.924
     4   6 C    3.921 --     5 C    1.631     3 C    1.038    23 H    0.971
     5   6 C    3.993 --     4 C    1.631     6 C    1.309    24 H    0.968
     6   6 C    3.874 --     7 C    1.327     5 C    1.309    25 H    0.974
     7   6 C    3.992 --     8 C    1.581     6 C    1.327    26 H    0.963
     8   6 C    3.917 --     7 C    1.581     3 C    1.020     9 C    1.004
     9   6 C    3.995 --     8 C    1.004    10 C    0.994    11 C    0.977
                            27 H    0.945
    10   6 C    3.996 --     9 C    0.994    29 H    0.986    28 H    0.985
                            30 H    0.984
    11   6 C    3.987 --    16 C    1.418    12 C    1.406     9 C    0.977
                            14 C    0.110
    12   6 C    3.992 --    13 C    1.451    11 C    1.406    31 H    0.968
                            15 C    0.112
    13   6 C    3.992 --    12 C    1.451    14 C    1.434    32 H    0.971
                            16 C    0.110
    14   6 C    3.991 --    15 C    1.443    13 C    1.434    33 H    0.972
                            11 C    0.110
    15   6 C    3.992 --    14 C    1.443    16 C    1.439    34 H    0.971
                            12 C    0.112
    16   6 C    3.991 --    15 C    1.439    11 C    1.418    35 H    0.969
                            13 C    0.110
    17   1 H    0.999 --     1 C    0.986
    18   1 H    0.999 --     1 C    0.986
    19   1 H    0.999 --     1 C    0.986
    20   1 H    0.999 --     2 C    0.974
    21   1 H    0.999 --     2 C    0.977
    22   1 H    0.997 --     3 C    0.924
    23   1 H    0.999 --     4 C    0.971
    24   1 H    0.999 --     5 C    0.968
    25   1 H    0.999 --     6 C    0.974
    26   1 H    0.999 --     7 C    0.963
    27   1 H    0.998 --     9 C    0.945
    28   1 H    0.998 --    10 C    0.985
    29   1 H    0.998 --    10 C    0.986
    30   1 H    0.998 --    10 C    0.984
    31   1 H    0.999 --    12 C    0.968
    32   1 H    0.999 --    13 C    0.971
    33   1 H    0.999 --    14 C    0.972
    34   1 H    0.999 --    15 C    0.971
    35   1 H    0.999 --    16 C    0.969
 ---------------------------------------------------------------------------

Topologies differ in total number of bonds
Writing topology from bond orders to xtbtopo.mol

molecular dipole:
                 x           y           z       tot (Debye)
 q only:        0.000       0.295      -0.111
   full:        0.039       0.295      -0.175       0.877
molecular quadrupole (traceless):
                xx          xy          yy          xz          yz          zz
 q only:       -0.621      -1.294      -0.144       1.051       0.777       0.765
  q+dip:       -2.872      -1.115       0.163      -0.524      -1.847       2.710
   full:       -1.462      -1.173       0.084       0.710      -0.109       1.378

           -------------------------------------------------
          |                Geometry Summary                 |
           -------------------------------------------------

      molecular mass/u    :      211.3226486
   center of mass at/Å    :        0.2030056      -0.1162192      -0.0184595
  moments of inertia/u·Å² :        0.5678823E+03   0.1406167E+04   0.1451739E+04
rotational constants/cm⁻¹ :        0.2968508E-01   0.1198836E-01   0.1161202E-01

 * 31 selected distances

     #   Z          #   Z                                           value/Å
     1   6 C        2   6 C                                       1.5218870
     4   6 C        5   6 C                                       1.3541102
     5   6 C        6   6 C                                       1.4023954
     6   6 C        7   6 C                                       1.4009513
     7   6 C        8   6 C                                       1.3618294
     9   6 C       10   6 C                                       1.5311032 (max)
    11   6 C       12   6 C                                       1.3899348
    12   6 C       13   6 C                                       1.3824711
    13   6 C       14   6 C                                       1.3852053
    14   6 C       15   6 C                                       1.3835785
    11   6 C       16   6 C                                       1.3875354
    15   6 C       16   6 C                                       1.3843932
     1   6 C       17   1 H                                       1.0880080
     1   6 C       18   1 H                                       1.0876435
     1   6 C       19   1 H                                       1.0873363
     2   6 C       20   1 H                                       1.0909912
     2   6 C       21   1 H                                       1.0920940
     3   6 C       22   1 H                                       1.1038268
     4   6 C       23   1 H                                       1.0804743
     5   6 C       24   1 H                                       1.0813598
     6   6 C       25   1 H                                       1.0782925 (min)
     7   6 C       26   1 H                                       1.0799653
     9   6 C       27   1 H                                       1.0972673
    10   6 C       28   1 H                                       1.0871022
    10   6 C       29   1 H                                       1.0884647
    10   6 C       30   1 H                                       1.0876623
    12   6 C       31   1 H                                       1.0807001
    13   6 C       32   1 H                                       1.0803690
    14   6 C       33   1 H                                       1.0800991
    15   6 C       34   1 H                                       1.0804744
    16   6 C       35   1 H                                       1.0815394

 * 2 distinct bonds (by element types)

   Z      Z             #   av. dist./Å        max./Å        min./Å
   1 H    6 C          19     1.0859827     1.1038268     1.0782925
   6 C    6 C          12     1.4071162     1.5311032     1.3541102


optimized geometry written to: xtbopt.xyz


           -------------------------------------------------
          | TOTAL ENERGY              -43.881080102448 Eh   |
          | GRADIENT NORM               0.000326287187 Eh/α |
          | HOMO-LUMO GAP               2.123619355020 eV   |
           -------------------------------------------------

------------------------------------------------------------------------
 * finished run on 2025/09/15 at 14:52:52.133     
------------------------------------------------------------------------
 total:
 * wall-time:     0 d,  0 h,  0 min,  0.223 sec
 *  cpu-time:     0 d,  0 h,  0 min,  0.872 sec
 * ratio c/w:     3.919 speedup
 SCF:
 * wall-time:     0 d,  0 h,  0 min,  0.026 sec
 *  cpu-time:     0 d,  0 h,  0 min,  0.101 sec
 * ratio c/w:     3.845 speedup
 ANC optimizer:
 * wall-time:     0 d,  0 h,  0 min,  0.178 sec
 *  cpu-time:     0 d,  0 h,  0 min,  0.711 sec
 * ratio c/w:     4.000 speedup

