35
 energy: -43.871499732516 gnorm: 0.066665443698 xtb: 6.7.1 (edcfbbe)
C           -3.25850000000000        0.70000000000000       -0.48100000000000
C           -2.07910000000000        0.13340000000000       -1.26440000000000
C           -1.16490000000000       -0.82150000000000       -0.46280000000000
C           -1.90960000000000       -2.12260000000000       -0.18210000000000
C           -2.13760000000000       -2.59190000000000        1.05220000000000
C           -1.65890000000000       -1.83340000000000        2.17510000000000
C           -0.81240000000000       -0.67540000000000        2.02600000000000
C           -0.55030000000000       -0.17180000000000        0.80040000000000
C            0.36720000000000        1.03600000000000        0.56520000000000
C            0.82750000000000        1.78380000000000        1.82870000000000
C            1.59090000000000        0.68110000000000       -0.27340000000000
C            2.48270000000000       -0.32650000000000        0.12850000000000
C            3.60030000000000       -0.63840000000000       -0.64730000000000
C            3.84290000000000        0.05360000000000       -1.83180000000000
C            2.96860000000000        1.05780000000000       -2.24200000000000
C            1.84960000000000        1.37110000000000       -1.46810000000000
H           -3.85810000000000        1.34720000000000       -1.12940000000000
H           -2.92460000000000        1.30250000000000        0.36900000000000
H           -3.91290000000000       -0.09360000000000       -0.10830000000000
H           -1.48920000000000        0.96760000000000       -1.66170000000000
H           -2.47060000000000       -0.39390000000000       -2.14450000000000
H           -0.33300000000000       -1.10700000000000       -1.12070000000000
H           -2.26070000000000       -2.68800000000000       -1.04100000000000
H           -2.66820000000000       -3.52110000000000        1.22570000000000
H           -1.89100000000000       -2.18270000000000        3.17550000000000
H           -0.39900000000000       -0.25870000000000        2.93750000000000
H           -0.22880000000000        1.77070000000000        0.00820000000000
H            1.45960000000000        1.16180000000000        2.47260000000000
H            1.41270000000000        2.67180000000000        1.56120000000000
H           -0.03140000000000        2.12490000000000        2.41740000000000
H            2.30570000000000       -0.88050000000000        1.04800000000000
H            4.28010000000000       -1.42330000000000       -0.32670000000000
H            4.71310000000000       -0.19030000000000       -2.43530000000000
H            3.15790000000000        1.59820000000000       -3.16570000000000
H            1.18000000000000        2.15910000000000       -1.80520000000000
35
 energy: -43.878551615285 gnorm: 0.028574885750 xtb: 6.7.1 (edcfbbe)
C           -3.24460845109545        0.69427185693797       -0.47431963807112
C           -2.06516515706457        0.14300343074205       -1.26620811892781
C           -1.14957468969194       -0.81002395795302       -0.46357576969502
C           -1.88877775822152       -2.09030534100993       -0.17592617313018
C           -2.12118209570840       -2.55125806967102        1.06962566530511
C           -1.63826589977118       -1.83109514858458        2.18468377962965
C           -0.81961234344592       -0.68944038782291        2.01138160927984
C           -0.54871062479733       -0.17731753333665        0.78494042802216
C            0.35362759028067        1.02744470805959        0.55015632586041
C            0.81362363887937        1.75366644216072        1.82317155349733
C            1.57145842020836        0.66666562741508       -0.28541570829609
C            2.46025408179478       -0.32643133761133        0.11955608568434
C            3.57921730390265       -0.63003421392442       -0.64214367137482
C            3.82897395246055        0.05598708229846       -1.81993364517211
C            2.95965163926737        1.05361522621172       -2.22762089224186
C            1.84203257834151        1.35660777437442       -1.46446899255098
H           -3.84900931047089        1.33709995322049       -1.11634958336944
H           -2.90820258240723        1.28459155590872        0.37681828921642
H           -3.88124372007127       -0.10752429566979       -0.10255565820533
H           -1.47204936203556        0.97464732462608       -1.65630230869439
H           -2.45100697446219       -0.40446470130143       -2.13313788853341
H           -0.31533135277781       -1.07079885183297       -1.13310749748175
H           -2.24156861222324       -2.64260564934565       -1.03882931944579
H           -2.66152456493514       -3.47280786731071        1.23994800161542
H           -1.86706630868015       -2.17717184990870        3.18197154880139
H           -0.41732926855136       -0.25318186904492        2.91430783350385
H           -0.23197340822046        1.75869934319182       -0.02162731340830
H            1.44554674597499        1.12920818069444        2.45431299807459
H            1.39720077085984        2.63286275305765        1.54328432227399
H           -0.04060693519505        2.09470756059625        2.40893438968432
H            2.27863914087204       -0.87270388181651        1.03597462341250
H            4.25755587411102       -1.40864164514483       -0.31839555666101
H            4.69783808926870       -0.18609243710111       -2.41842110700251
H            3.15012264252478        1.59458083586756       -3.14548132803709
H            1.17706695108002        2.14423938302742       -1.79544728356225
35
 energy: -43.880303047289 gnorm: 0.006425580290 xtb: 6.7.1 (edcfbbe)
C           -3.22403857248308        0.68463311402660       -0.46459340649185
C           -2.04882836447009        0.14816820578216       -1.27171366547041
C           -1.13048368953088       -0.80653252029338       -0.46399644467777
C           -1.86726099367801       -2.07276289450166       -0.17704623640817
C           -2.10486299356738       -2.52303217026112        1.07732173889158
C           -1.61967415772596       -1.82359478407869        2.18864538648609
C           -0.82591714833398       -0.68561611118982        2.00231739372013
C           -0.55113899449610       -0.17242027735704        0.77217926837679
C            0.33885626807186        1.02658138650134        0.54161702395502
C            0.80407905755879        1.73726155069401        1.81667412573817
C            1.55261678924063        0.66167435508478       -0.29090866303423
C            2.43286370439017       -0.33143858666965        0.11679805587311
C            3.55438578325781       -0.63259754662833       -0.63508246064554
C            3.81421740957112        0.05335522755598       -1.80871255997563
C            2.94721132160363        1.04835656722312       -2.22055882399221
C            1.82882902433942        1.34900501492647       -1.46466122048629
H           -3.83934871643624        1.32687989969555       -1.09299197668206
H           -2.88031982227984        1.26348318629195        0.38899373972382
H           -3.84211232980445       -0.13006826716323       -0.09500727881596
H           -1.45864867046440        0.98114343045996       -1.65673765359370
H           -2.43167862759832       -0.40668167045768       -2.13203835429392
H           -0.29487018538581       -1.04290853112309       -1.14717785568322
H           -2.23274558174573       -2.61278997341173       -1.03957001211149
H           -2.66548456357315       -3.43376851594182        1.23930774512710
H           -1.83518241306234       -2.17323961927543        3.18527804790724
H           -0.41963439841079       -0.22847298436862        2.89276246757611
H           -0.23996492973804        1.75828979154681       -0.03531283333249
H            1.42957050028136        1.09353541403329        2.42907827595004
H            1.39118014522756        2.61199654565507        1.54064172029910
H           -0.04899063159038        2.06823606009493        2.40389429284189
H            2.23863131931559       -0.87722167881180        1.02832350781043
H            4.23288616142254       -1.40520989649387       -0.30406905941374
H            4.68795968338881       -0.18392013842129       -2.39785120172627
H            3.14383128733177        1.59464620238578       -3.13158866195829
H            1.16406732937397        2.13503021449028       -1.79441442148326
35
 energy: -43.880627740516 gnorm: 0.004034578550 xtb: 6.7.1 (edcfbbe)
C           -3.20975755675552        0.67636256036475       -0.45728490437885
C           -2.03954993583773        0.14970763248724       -1.27777267826867
C           -1.11853283719906       -0.80652774075074       -0.46793639951726
C           -1.85986664385457       -2.06827946972705       -0.18118156491379
C           -2.10156085740435       -2.51376562400195        1.07523098763193
C           -1.60917012978057       -1.82039976815662        2.18823620293397
C           -0.82241092917197       -0.67838256156419        2.00009970266914
C           -0.54984575771284       -0.16722806339622        0.76728133972428
C            0.33024891411390        1.03436877477823        0.53798922182538
C            0.80067432154386        1.73419990312688        1.81611541506769
C            1.54013433283288        0.66411863469696       -0.29568498777128
C            2.41227300510289       -0.33536872070111        0.11552479552892
C            3.53795438151806       -0.63749753057547       -0.62943097677302
C            3.80698201929569        0.05103369703565       -1.80032353833450
C            2.94309000294486        1.04710831588066       -2.21878344564897
C            1.82078057613217        1.34996804749687       -1.46921818317875
H           -3.83541646409376        1.32083099373930       -1.07270980424974
H           -2.85808716938978        1.24844952315202        0.39793127569440
H           -3.81741869140341       -0.14627292716608       -0.08749573608122
H           -1.45095529521512        0.98411865020299       -1.66085038054503
H           -2.42291823527629       -0.40411145938533       -2.13745653984541
H           -0.28172010992499       -1.03656625312672       -1.15317194430737
H           -2.22983582495183       -2.60663633997735       -1.04188192563853
H           -2.66807081702540       -3.42190418231483        1.23123741754651
H           -1.81638440991238       -2.17389087185904        3.18545593475535
H           -0.42039052949356       -0.20472238183760        2.88453370627555
H           -0.24826827687599        1.76820795097385       -0.03659146409213
H            1.42473459507682        1.07886704651708        2.41803055467347
H            1.39050519121090        2.60831327868223        1.54701652131530
H           -0.05014436354389        2.06085814242367        2.40880826998311
H            2.20660477207102       -0.88302844660915        1.02393334378423
H            4.21181997477487       -1.41288768399982       -0.29541646779789
H            4.68419055551113       -0.18696718097707       -2.38355305691428
H            3.14385275682346        1.59216572789162       -3.12954839005414
H            1.15645943587054        2.13575832667606       -1.80133230109823
35
 energy: -43.880787423423 gnorm: 0.002817718178 xtb: 6.7.1 (edcfbbe)
C           -3.19488960315719        0.66739539507274       -0.44909409744729
C           -2.03101092764764        0.15046573286757       -1.28369953436712
C           -1.10721882497265       -0.80719255944652       -0.47374630324181
C           -1.85048846974530       -2.06810858182810       -0.18698465148776
C           -2.09364042933259       -2.51149255033263        1.06960423933627
C           -1.60122769252256       -1.81850411988595        2.18443548069052
C           -0.82286576710299       -0.66932364307346        1.99778163292391
C           -0.55123448142308       -0.16000042182358        0.76351078254644
C            0.32227392125968        1.04581755379753        0.53668567183535
C            0.80027008042084        1.73707969312982        1.81640379075997
C            1.52884517944656        0.67253613240340       -0.29964511493122
C            2.38906082384711       -0.33757147152170        0.11398049742424
C            3.51697642204699       -0.64592665208300       -0.62488948908843
C            3.79737174705912        0.04528877041685       -1.79227632108092
C            2.93990068286550        1.04474980489485       -2.21799510272934
C            1.81508036831523        1.35530758953125       -1.47402833780826
H           -3.83226042419275        1.31452917859675       -1.04944419701031
H           -2.83370151020889        1.23274975490776        0.40717615580834
H           -3.79227718691853       -0.16254471641772       -0.07834997709507
H           -1.44409839498849        0.98654070859216       -1.66549875967226
H           -2.41578384703316       -0.40079871211947       -2.14387611897969
H           -0.26789982498137       -1.03520573347435       -1.15585103734801
H           -2.22539633070088       -2.60571355304115       -1.04568798000049
H           -2.66668332899163       -3.41618534861348        1.22111987603851
H           -1.80085475315932       -2.17705765214725        3.18170084123886
H           -0.42345659174175       -0.18671833535260        2.87765868077654
H           -0.25717167826039        1.78350228122086       -0.03206616651328
H            1.42423966866717        1.07280239110041        2.40914344055537
H            1.39249526405201        2.61134972601955        1.55401256911048
H           -0.04699483094809        2.06142728876768        2.41611359901700
H            2.16902936427612       -0.88778529392426        1.01818937607486
H            4.18322440900907       -1.42717915125248       -0.28826603605234
H            4.67958546631832       -0.19399459346063       -2.36767406704810
H            3.14762727871177        1.58765720227389       -3.12878164150021
H            1.15317422173380        2.14210388620481       -1.80986170073449
35
 energy: -43.880839057250 gnorm: 0.001996871843 xtb: 6.7.1 (edcfbbe)
C           -3.18810139608882        0.66335535855567       -0.44474839444926
C           -2.02771648615537        0.15037649064640       -1.28561967550269
C           -1.10248706026772       -0.80639141874383       -0.47649992335629
C           -1.84493197417822       -2.06867124028991       -0.19059829464022
C           -2.08831337709679       -2.51288632980926        1.06521214409181
C           -1.59846196759270       -1.81869568585826        2.18084266249319
C           -0.82312150419792       -0.66665992331672        1.99638711980416
C           -0.55134844436124       -0.15676425604854        0.76260774775782
C            0.31897481528706        1.05283451720340        0.53708751028702
C            0.80097441971276        1.74122428036802        1.81701575282549
C            1.52352773245429        0.67861732819832       -0.30168242831753
C            2.37622703878620       -0.33811919553193        0.11229063483336
C            3.50419910386936       -0.65216412963035       -0.62373546186677
C            3.79137964337144        0.04033652953870       -1.78873969509258
C            2.93983245737192        1.04384322819551       -2.21669855472365
C            1.81433665504562        1.36032284373777       -1.47549330872810
H           -3.83062128834422        1.31111358995302       -1.03821859573392
H           -2.82239365989041        1.22643356019876        0.41111884871904
H           -3.78122138150876       -0.16901627998970       -0.07296548629863
H           -1.44170087240246        0.98715265610730       -1.66743537442573
H           -2.41395046212252       -0.39947602958501       -2.14621037810336
H           -0.26126573403111       -1.03464273280520       -1.15506139855498
H           -2.21811838784095       -2.60765775651470       -1.04920985888196
H           -2.65833592021683       -3.41921513985299        1.21551264035127
H           -1.79681683887871       -2.17923458226017        3.17759799498659
H           -0.42984181874220       -0.18068445709866        2.87664490883676
H           -0.26240206466270        1.79231508616756       -0.02746153070085
H            1.42639185502859        1.07582172681333        2.40674376829834
H            1.39327396157726        2.61575261106536        1.55511145649934
H           -0.04373282960687        2.06601077724209        2.42050428064468
H            2.14864285347129       -0.88854067426926        1.01445073641875
H            4.16395462508225       -1.43911706523550       -0.28723222706938
H            4.67457124182829       -0.20234169666356       -2.36127951106450
H            3.15217526294683        1.58473379132231       -3.12776024649432
H            1.15642180235342        2.15003421818944       -1.81267786284261
35
 energy: -43.880890571369 gnorm: 0.001666579546 xtb: 6.7.1 (edcfbbe)
C           -3.18145343657015        0.66020577468917       -0.43909763821259
C           -2.02487555562927        0.15003956295950       -1.28568008461563
C           -1.09767800047978       -0.80400172652037       -0.47925414996121
C           -1.83371123363658       -2.07141736826731       -0.19546876105813
C           -2.07601657829984       -2.51926340038530        1.05882122652376
C           -1.59554953155687       -1.82023058856204        2.17549856521579
C           -0.82676296762545       -0.66268856871512        1.99474474189429
C           -0.55300060926215       -0.15153843695152        0.76253950066186
C            0.31523926717625        1.06180839394330        0.53778841145014
C            0.80157210753214        1.74867520351939        1.81708128116558
C            1.51778136705139        0.68717404380268       -0.30357225176482
C            2.35948134473497       -0.33933249632806        0.10905605329153
C            3.48559128983907       -0.66346925383334       -0.62461021748941
C            3.78203900062507        0.03053982433268       -1.78614535481375
C            2.94172937276831        1.04335587690900       -2.21316078234871
C            1.81705564890643        1.36965227954610       -1.47429042402231
H           -3.82904091548840        1.30719331081126       -1.02657734461758
H           -2.81119909332070        1.22263382997657        0.41496110552279
H           -3.77029302606017       -0.17365913672565       -0.06462260776357
H           -1.44078633484048        0.98755361995656       -1.66936155237651
H           -2.41374371892050       -0.39931126403011       -2.14589343727727
H           -0.25336866935271       -1.03125400809075       -1.15316264962208
H           -2.20147946022480       -2.61252811554878       -1.05548651400610
H           -2.63998272565718       -3.42929547600921        1.20911877719384
H           -1.79638772615942       -2.18177101016034        3.17119285341746
H           -0.44075717812990       -0.17727247975280        2.87786058421854
H           -0.26931853078174        1.80245214870077       -0.02200693388430
H            1.42948214349159        1.08465621787637        2.40523787276797
H            1.39294625017419        2.62351427742163        1.55239875964290
H           -0.03997012280535        2.07521390867836        2.42423271991735
H            2.12236619034697       -0.88919824724112        1.00859018631390
H            4.13525218333045       -1.45939649413802       -0.28960750922197
H            4.66472183084081       -0.21878707395977       -2.35665119134667
H            3.16229037773717        1.58331396577601       -3.12293585243672
H            1.16782704024675        2.16643290631946       -1.81173738235805
35
 energy: -43.880924967345 gnorm: 0.001335180189 xtb: 6.7.1 (edcfbbe)
C           -3.18177062177705        0.66019459162251       -0.43702865667569
C           -2.02553060229061        0.14975054327046       -1.28438291939104
C           -1.09571251024133       -0.80123285682512       -0.47941989142300
C           -1.82550488745515       -2.07253981141249       -0.19771659242673
C           -2.06775431347518       -2.52241492762809        1.05607262756265
C           -1.59397041912570       -1.82041179275087        2.17354629464975
C           -0.82837774220020       -0.66075679161143        1.99427530706398
C           -0.55300701692135       -0.14884998667493        0.76299917360437
C            0.31409455455408        1.06515608850387        0.53798610021086
C            0.80028257598966        1.75320334502579        1.81656371781486
C            1.51648165961384        0.68964280103706       -0.30279610187152
C            2.35250418912021       -0.34232589260607        0.10722687612648
C            3.47634160395870       -0.67175030408907       -0.62709982094928
C            3.77706268157609        0.02353062295570       -1.78673572112792
C            2.94424691992310        1.04420485712861       -2.20923720959186
C            1.82138652640717        1.37523179781790       -1.46988954059353
H           -3.83067163032270        1.30507545551144       -1.02531214347052
H           -2.81148886453843        1.22480928310315        0.41546415023158
H           -3.76910264625617       -0.17369395102091       -0.06006704505748
H           -1.44354844645460        0.98781577928066       -1.67025398928848
H           -2.41566007647441       -0.40096888309429       -2.14326253680851
H           -0.24999994625346       -1.02438248075440       -1.15340408383723
H           -2.18644185904211       -2.61570883880025       -1.05942202143397
H           -2.62385066541953       -3.43737803032795        1.20637853751349
H           -1.79725869146693       -2.18181718699341        3.16884082406711
H           -0.44744678719587       -0.17461773613356        2.87989828270823
H           -0.27102456469152        1.80481113404059       -0.02246203847319
H            1.42849397622980        1.08978036031746        2.40513795904026
H            1.39129136808285        2.62794975071322        1.55025988912928
H           -0.04108809994541        2.07993549819408        2.42352801701280
H            2.11157402004362       -0.89264800606661        1.00528582356998
H            4.12060880801674       -1.47274895122744       -0.29446115310791
H            4.65696621367568       -0.23101734599827       -2.35909386039403
H            3.16943920144780        1.58624799791800       -3.11652868547000
H            1.17843609290853        2.17792386757372       -1.80508956891343
35
 energy: -43.880970890701 gnorm: 0.001423531576 xtb: 6.7.1 (edcfbbe)
C           -3.18490484907467        0.66025892637248       -0.43425569146301
C           -2.02862688075722        0.14916693984576       -1.28222532137436
C           -1.09271974535999       -0.79714272089114       -0.47937648248189
C           -1.81032250271985       -2.07562473131054       -0.20047660963516
C           -2.05240083038737       -2.52750081565788        1.05283392916459
C           -1.59098353852097       -1.81936682832949        2.17165848718186
C           -0.83256583490483       -0.65464995632120        1.99420949925821
C           -0.55445941650849       -0.14293634379836        0.76354997212588
C            0.31282857106938        1.06967899580519        0.53759061293474
C            0.79656553564114        1.75976295848872        1.81583896159020
C            1.51624699451024        0.69157435658616       -0.30035609772953
C            2.34313990264870       -0.35003753970013        0.10391064569041
C            3.46351977201320       -0.68604424369915       -0.63259806950955
C            3.77090144848744        0.01292366706008       -1.78845810881616
C            2.94998313764984        1.04700796191483       -2.20206771857001
C            1.83035069180767        1.38410983404096       -1.46080083066031
H           -3.83583689552110        1.30057743540471       -1.02579038432360
H           -2.81521918426031        1.23036490696531        0.41489426291189
H           -3.76990251263127       -0.17314581602560       -0.05232266301706
H           -1.45085362319924        0.98827496685070       -1.67245918611530
H           -2.42035119035411       -0.40512831199860       -2.13797384301471
H           -0.24574041309840       -1.01131095432098       -1.15558613044364
H           -2.16222579423701       -2.62176888469257       -1.06409971204774
H           -2.60097048892006       -3.44758295710345        1.20252370876277
H           -1.79738171852825       -2.18044808578671        3.16652687765231
H           -0.45428376732047       -0.16892991091983        2.88151559609751
H           -0.27100856985491        1.80744131058066       -0.02667303374486
H            1.42384461598179        1.09655407285123        2.40583499437942
H            1.38776675190304        2.63404728136847        1.54906949310254
H           -0.04595367747993        2.08648634300673        2.42085457102175
H            2.09699744384720       -0.90306779615422        0.99901088389152
H            4.09972030371356       -1.49543909975127       -0.30505828323137
H            4.64624100404105       -0.24888243884905       -2.36453035208467
H            3.18186539833524        1.59434072849475       -3.10441514687888
H            1.19673986198917        2.19643674967227       -1.79049883062339
35
 energy: -43.881009226208 gnorm: 0.001535094846 xtb: 6.7.1 (edcfbbe)
C           -3.18842625784836        0.65813508449182       -0.43032945298604
C           -2.03341724168579        0.14786259190287       -1.28101474463128
C           -1.08804576063282       -0.79253508530671       -0.48039925226018
C           -1.79362768550716       -2.07783331843412       -0.20405179814049
C           -2.03733622571354       -2.52996940595914        1.04892471006004
C           -1.58722453994233       -1.81654637525346        2.16912223723030
C           -0.83413557400237       -0.64851282108294        1.99338962771631
C           -0.55404990985501       -0.13696639025073        0.76300418007814
C            0.31175353187723        1.07602410096611        0.53740297084653
C            0.79188586712112        1.76845553139265        1.81560599849020
C            1.51669923983683        0.69449601118327       -0.29688707239745
C            2.33068667400297       -0.36056658733860        0.09941128091256
C            3.44690138821941       -0.70449259305040       -0.63995793175292
C            3.76390868062547        0.00067543805409       -1.78963388581904
C            2.95790182640791        1.05085741155842       -2.19298607060272
C            1.84199055892979        1.39518841278155       -1.44947471976655
H           -3.84419889370219        1.29242028506067       -1.02371246796404
H           -2.81822197714680        1.23507991637014        0.41411605676825
H           -3.76859406518078       -0.17556035352451       -0.04148239119948
H           -1.46075267141123        0.98823727337583       -1.67610025497195
H           -2.42683645809002       -0.41066046915190       -2.13304089404008
H           -0.24043841015341       -0.99606810869999       -1.15914762041411
H           -2.13318262131263       -2.62983956641711       -1.06881456244514
H           -2.57365558048481       -3.45759926652103        1.19665390157019
H           -1.79491470245456       -2.17807038364723        3.16359875253531
H           -0.46389635673206       -0.15703379043289        2.88161375631302
H           -0.26986139790494        1.81229362945975       -0.03124870270233
H            1.41748697064222        1.10494861244550        2.40716127268164
H            1.38348925546730        2.64268199596073        1.55031930112692
H           -0.05272695518153        2.09457932315237        2.41802153707602
H            2.07657071625364       -0.91927192949080        0.98911970446161
H            4.07215713142328       -1.52564199785141       -0.31978011188588
H            4.63491355485055       -0.26858396558485       -2.36889582703389
H            3.19807031643560        1.60483598665494       -3.08916430890136
H            1.21912757284933        2.21898080318567       -1.77154321795159
35
 energy: -43.881031297976 gnorm: 0.000896162958 xtb: 6.7.1 (edcfbbe)
C           -3.19117343544091        0.65378387358398       -0.42650233160951
C           -2.03732372912725        0.14731369679740       -1.28067254678513
C           -1.08409354962255       -0.78859235120748       -0.48225114898424
C           -1.77944844086607       -2.07954386819398       -0.20717153819085
C           -2.02410549807748       -2.53189262606258        1.04551377855073
C           -1.58403427560008       -1.81370668498821        2.16676343763276
C           -0.83760770205511       -0.64108057230036        1.99238335204368
C           -0.55558792078514       -0.13024822329072        0.76188171323928
C            0.31122367703278        1.08197533128238        0.53710328095542
C            0.78847378745174        1.77539458893310        1.81589515932885
C            1.51700253010493        0.69678481608564       -0.29469034619320
C            2.31920088802602       -0.36967978576976        0.09478510469352
C            3.43270046617360       -0.71948206985356       -0.64608157950310
C            3.75916466018473       -0.00832754640868       -1.78934806963680
C            2.96582305996717        1.05424243974764       -2.18497817145117
C            1.85227040887809        1.40393636934557       -1.44054823513986
H           -3.85314697005189        1.28240797944043       -1.01919041507080
H           -2.82048993978766        1.23606470037415        0.41400937041066
H           -3.76511086445914       -0.18166995495991       -0.03202766042358
H           -1.46934561050286        0.98946961530633       -1.67879110004678
H           -2.43106022817866       -0.41458655952400       -2.13018260962659
H           -0.23634680035533       -0.98393822545273       -1.16259772047296
H           -2.11145168831646       -2.63566648312457       -1.07209066564942
H           -2.55498670831970       -3.46272796040985        1.19154327663684