      -----------------------------------------------------------      
     |                   =====================                   |     
     |                           x T B                           |     
     |                   =====================                   |     
     |                         S. Grimme                         |     
     |          Mulliken Center for Theoretical Chemistry        |     
     |                    University of Bonn                     |     
      -----------------------------------------------------------      

   * xtb version 6.7.1 (edcfbbe) compiled by 'conda@c0858423619e' on 2025-09-04

   xtb is free software: you can redistribute it and/or modify it under
   the terms of the GNU Lesser General Public License as published by
   the Free Software Foundation, either version 3 of the License, or
   (at your option) any later version.
   
   xtb is distributed in the hope that it will be useful,
   but WITHOUT ANY WARRANTY; without even the implied warranty of
   MERCHANTABILITY or FITNESS FOR A PARTICULAR PURPOSE.  See the
   GNU Lesser General Public License for more details.
   
   Cite this work as:
   * C. Bannwarth, E. Caldeweyher, S. Ehlert, A. Hansen, P. Pracht,
     J. Seibert, S. Spicher, S. Grimme, WIREs Comput. Mol. Sci., 2020, 11,
     e01493. DOI: 10.1002/wcms.1493
   
   for GFN2-xTB:
   * C. Bannwarth, S. Ehlert and S. Grimme., J. Chem. Theory Comput., 2019,
     15, 1652-1671. DOI: 10.1021/acs.jctc.8b01176
   for GFN1-xTB:
   * S. Grimme, C. Bannwarth, P. Shushkov, J. Chem. Theory Comput., 2017,
     13, 1989-2009. DOI: 10.1021/acs.jctc.7b00118
   for GFN0-xTB:
   * P. Pracht, E. Caldeweyher, S. Ehlert, S. Grimme, ChemRxiv, 2019, preprint.
     DOI: 10.26434/chemrxiv.8326202.v1
   for GFN-FF:
   * S. Spicher and S. Grimme, Angew. Chem. Int. Ed., 2020, 59, 15665-15673.
     DOI: 10.1002/anie.202004239
   
   for ALPB and GBSA implicit solvation:
   * S. Ehlert, M. Stahn, S. Spicher, S. Grimme, J. Chem. Theory Comput.,
     2021, 17, 4250-4261. DOI: 10.1021/acs.jctc.1c00471
   
   for ddCOSMO and CPCM-X implicit solvation:
   * M. Stahn, S. Ehlert, S. Grimme, J. Phys. Chem. A,
     2023, XX, XXXX-XXXX. DOI: 10.1021/acs.jpca.3c04382
   
   for DFT-D4:
   * E. Caldeweyher, C. Bannwarth and S. Grimme, J. Chem. Phys., 2017,
     147, 034112. DOI: 10.1063/1.4993215
   * E. Caldeweyher, S. Ehlert, A. Hansen, H. Neugebauer, S. Spicher,
     C. Bannwarth and S. Grimme, J. Chem. Phys., 2019, 150, 154122.
     DOI: 10.1063/1.5090222
   * E. Caldeweyher, J.-M. Mewes, S. Ehlert and S. Grimme, Phys. Chem. Chem. Phys.
     2020, 22, 8499-8512. DOI: 10.1039/D0CP00502A
   
   for sTDA-xTB:
   * S. Grimme and C. Bannwarth, J. Chem. Phys., 2016, 145, 054103.
     DOI: 10.1063/1.4959605
   
   in the mass-spec context:
   * V. Asgeirsson, C. Bauer and S. Grimme, Chem. Sci., 2017, 8, 4879.
     DOI: 10.1039/c7sc00601b
   * J. Koopman and S. Grimme, ACS Omega 2019, 4, 12, 15120-15133.
     DOI: 10.1021/acsomega.9b02011
   
   for metadynamics refer to:
   * S. Grimme, J. Chem. Theory Comput., 2019, 155, 2847-2862
     DOI: 10.1021/acs.jctc.9b00143
   
   for SPH calculations refer to:
   * S. Spicher and S. Grimme, J. Chem. Theory Comput., 2021, 17, 1701-1714
     DOI: 10.1021/acs.jctc.0c01306
   
   for ONIOM refer to:
   * C. Plett, A. Katbashev, S. Ehlert, S. Grimme, M. Bursch,
     Phys. Chem. Chem. Phys., 2023, 25, 17860-17868. DOI: 10.1039/D3CP02178E
   
   for DIPRO refer to:
   * J. Kohn, N. Gildemeister, S. Grimme, D. Fazzi, A. Hansen,
     J. Chem. Phys., 2023, just accepted.
   
   for PTB refer to:
   * S. Grimme, M. Mueller, A. Hansen, J. Chem. Phys., 2023, 158, 124111.
     DOI: 10.1063/5.0137838
   
   with help from (in alphabetical order)
   P. Atkinson, C. Bannwarth, F. Bohle, G. Brandenburg, E. Caldeweyher
   M. Checinski, S. Dohm, S. Ehlert, S. Ehrlich, I. Gerasimov, C. Hölzer
   A. Katbashev, J. Kohn, J. Koopman, C. Lavigne, S. Lehtola, F. März, M. Müller,
   F. Musil, H. Neugebauer, J. Pisarek, C. Plett, P. Pracht, F. Pultar,
   J. Seibert, P. Shushkov, S. Spicher, M. Stahn, M. Steiner, T. Strunk,
   J. Stückrath, T. Rose, and J. Unsleber
   
 * started run on 2025/09/15 at 14:21:06.560     
   ID    Z sym.   atoms
    1    6 C      1-16
    2    1 H      17-35

           -------------------------------------------------
          |                Calculation Setup                |
           -------------------------------------------------

          program call               : /home/paufv/miniforge3/envs/htvs/bin/xtb gfn_opt.xyz --opt normal --parallel 4 --chrg 0 --uhf 0 --gfn2 --input xtb.inp
          coordinate file            : gfn_opt.xyz
          omp threads                :                     4

########################################################################
[WARNING] Please study the warnings concerning your input carefully
-3- set_opt: the key 'uhf' is not recognized by opt
-2- set_opt: the key 'charge' is not recognized by opt
-1- set_opt: the key 'method' is not recognized by opt
########################################################################

           -------------------------------------------------
          |                 G F N 2 - x T B                 |
           -------------------------------------------------

        Reference                      10.1021/acs.jctc.8b01176
      * Hamiltonian:
        H0-scaling (s, p, d)           1.850000    2.230000    2.230000
        zeta-weighting                 0.500000
      * Dispersion:
        s8                             2.700000
        a1                             0.520000
        a2                             5.000000
        s9                             5.000000
      * Repulsion:
        kExp                           1.500000    1.000000
        rExp                           1.000000
      * Coulomb:
        alpha                          2.000000
        third order                    shell-resolved
        anisotropic                    true
        a3                             3.000000
        a5                             4.000000
        cn-shift                       1.200000
        cn-exp                         4.000000
        max-rad                        5.000000

q/qsh data taken from xtbrestart
CAMM data taken from xtbrestart

          ...................................................
          :                      SETUP                      :
          :.................................................:
          :  # basis functions                  83          :
          :  # atomic orbitals                  83          :
          :  # shells                           51          :
          :  # electrons                        83          :
          :  max. iterations                   250          :
          :  Hamiltonian                  GFN2-xTB          :
          :  restarted?                       true          :
          :  GBSA solvation                  false          :
          :  PC potential                    false          :
          :  electronic temp.          300.0000000     K    :
          :  accuracy                    1.0000000          :
          :  -> integral cutoff          0.2500000E+02      :
          :  -> integral neglect         0.1000000E-07      :
          :  -> SCF convergence          0.1000000E-05 Eh   :
          :  -> wf. convergence          0.1000000E-03 e    :
          :  Broyden damping             0.4000000          :
          :  net charge                          0          :
          :  unpaired electrons                  0          :
          ...................................................

 iter      E             dE          RMSdq      gap      omega  full diag
   1    -44.5989057 -0.445989E+02  0.275E+00    2.49       0.0  T
   2    -44.6058565 -0.695088E-02  0.162E+00    2.14       1.0  T
   3    -44.6051572  0.699360E-03  0.301E-01    2.16       1.0  T
   4    -44.6068884 -0.173123E-02  0.119E-01    2.11       1.0  T
   5    -44.6071203 -0.231853E-03  0.640E-02    2.12       1.0  T
   6    -44.6071677 -0.474809E-04  0.302E-02    2.13       1.0  T
   7    -44.6071890 -0.212052E-04  0.118E-02    2.12       1.4  T
   8    -44.6071919 -0.294396E-05  0.312E-03    2.12       5.4  T
   9    -44.6071920 -0.135987E-06  0.130E-03    2.12      13.0  T
  10    -44.6071920 -0.116531E-07  0.515E-04    2.12      32.8  T
  11    -44.6071920 -0.320505E-08  0.196E-04    2.12      86.0  T

   *** convergence criteria satisfied after 11 iterations ***

         #    Occupation            Energy/Eh            Energy/eV
      -------------------------------------------------------------
         1        2.0000           -0.6388681             -17.3845
       ...           ...                  ...                  ...
        36        2.0000           -0.4180280             -11.3751
        37        2.0000           -0.4107960             -11.1783
        38        2.0000           -0.4084630             -11.1148
        39        2.0000           -0.3985349             -10.8447
        40        2.0000           -0.3951735             -10.7532
        41        2.0000           -0.3878518             -10.5540
        42        1.0000           -0.3006138              -8.1801 (HOMO)
        43                         -0.2226179              -6.0577 (LUMO)
        44                         -0.2212730              -6.0211
        45                         -0.2023197              -5.5054
        46                         -0.1318384              -3.5875
        47                         -0.0972541              -2.6464
       ...                                ...                  ...
        83                          0.6334601              17.2373
      -------------------------------------------------------------
                  HL-Gap            0.0779958 Eh            2.1224 eV
             Fermi-level           -0.3029243 Eh           -8.2430 eV

 SCC (total)                   0 d,  0 h,  0 min,  0.024 sec
 SCC setup                      ...        0 min,  0.000 sec (  0.520%)
 Dispersion                     ...        0 min,  0.000 sec (  1.120%)
 classical contributions        ...        0 min,  0.000 sec (  0.249%)
 integral evaluation            ...        0 min,  0.001 sec (  6.227%)
 iterations                     ...        0 min,  0.019 sec ( 77.554%)
 molecular gradient             ...        0 min,  0.003 sec ( 13.309%)
 printout                       ...        0 min,  0.000 sec (  0.983%)

         :::::::::::::::::::::::::::::::::::::::::::::::::::::
         ::                     SUMMARY                     ::
         :::::::::::::::::::::::::::::::::::::::::::::::::::::
         :: total energy             -43.868566605277 Eh    ::
         :: gradient norm              0.069513809640 Eh/a0 ::
         :: HOMO-LUMO gap              2.122374992941 eV    ::
         ::.................................................::
         :: SCC energy               -44.606533634856 Eh    ::
         :: -> isotropic ES            0.004040588747 Eh    ::
         :: -> anisotropic ES          0.009675930885 Eh    ::
         :: -> anisotropic XC          0.029762572132 Eh    ::
         :: -> dispersion             -0.035964624248 Eh    ::
         :: repulsion energy           0.737967029580 Eh    ::
         :: add. restraining           0.000000000000 Eh    ::
         :: total charge              -0.000000000000 e     ::
         :::::::::::::::::::::::::::::::::::::::::::::::::::::

      ----------------------------------------------------------- 
     |                   =====================                   |
     |                        A N C O P T                        |
     |                   =====================                   |
     |               Approximate Normal Coordinate               |
     |                Rational Function Optimizer                |
      ----------------------------------------------------------- 
      ----------------------------------------------------------- 
     |                   =====================                   |
     |                        A N C O P T                        |
     |                   =====================                   |
     |               Approximate Normal Coordinate               |
     |                Rational Function Optimizer                |
      ----------------------------------------------------------- 

          ...................................................
          :                      SETUP                      :
          :.................................................:
          :   optimization level            normal          :
          :   max. optcycles                   200          :
          :   ANC micro-cycles                  20          :
          :   degrees of freedom                99          :
          :.................................................:
          :   RF solver                   davidson          :
          :   write xtbopt.log                true          :
          :   linear?                        false          :
          :   energy convergence         0.5000000E-05 Eh   :
          :   grad. convergence          0.1000000E-02 Eh/α :
          :   maxmium RF displ.          1.0000000          :
          :   Hlow (freq-cutoff)         0.1000000E-01      :
          :   Hmax (freq-cutoff)         5.0000000          :
          :   S6 in model hess.         20.0000000          :
          ...................................................

generating ANC from exact Hessian ...
Using Lindh-Hessian (1995)
 Shifting diagonal of input Hessian by    9.5393225046014104E-003
 Lowest  eigenvalues of input Hessian
    0.000000    0.000000    0.000000    0.000000    0.000000    0.000000
    0.010000    0.010365    0.010672    0.011498    0.012197    0.013023
    0.014195    0.015178    0.015924    0.016872    0.018421    0.020594
 Highest eigenvalues
    1.692290    1.819851    1.823686    1.903424    1.926683    1.939250


........................................................................
.............................. CYCLE    1 ..............................
........................................................................

 iter      E             dE          RMSdq      gap      omega  full diag
   1    -44.6071920 -0.446072E+02  0.999E-05    2.12       0.0  T
   2    -44.6071920 -0.297220E-10  0.723E-05    2.12     233.7  T
   3    -44.6071920 -0.121013E-09  0.394E-05    2.12     429.4  T
     SCC iter.                  ...        0 min,  0.003 sec
     gradient                   ...        0 min,  0.003 sec
 * total energy  :   -43.8685666 Eh     change       -0.9970549E-09 Eh
   gradient norm :     0.0695125 Eh/α   predicted     0.0000000E+00 (-100.00%)
   displ. norm   :     0.3196509 α      lambda       -0.1094312E-01
   maximum displ.:     0.1314716 α      in ANC's #19, #16, #22, ...

........................................................................
.............................. CYCLE    2 ..............................
........................................................................

 iter      E             dE          RMSdq      gap      omega  full diag
   1    -44.6457179 -0.446457E+02  0.209E-01    2.17       0.0  T
   2    -44.6457298 -0.119442E-04  0.126E-01    2.17       1.0  T
   3    -44.6456168  0.113054E-03  0.553E-02    2.16       1.0  T
   4    -44.6457445 -0.127731E-03  0.658E-03    2.16       2.6  T
   5    -44.6457456 -0.105663E-05  0.251E-03    2.17       6.7  T
   6    -44.6457456 -0.199303E-07  0.971E-04    2.17      17.4  T
   7    -44.6457456 -0.916726E-08  0.365E-04    2.17      46.3  T
     SCC iter.                  ...        0 min,  0.006 sec
     gradient                   ...        0 min,  0.003 sec
 * total energy  :   -43.8760196 Eh     change       -0.7452983E-02 Eh
   gradient norm :     0.0293496 Eh/α   predicted    -0.6032831E-02 ( -19.05%)
   displ. norm   :     0.2767868 α      lambda       -0.2965081E-02
   maximum displ.:     0.1030892 α      in ANC's #5, #19, #9, ...

........................................................................
.............................. CYCLE    3 ..............................
........................................................................

 iter      E             dE          RMSdq      gap      omega  full diag
   1    -44.6634231 -0.446634E+02  0.132E-01    2.17       0.0  T
   2    -44.6634285 -0.542829E-05  0.797E-02    2.17       1.0  T
   3    -44.6633856  0.428559E-04  0.344E-02    2.17       1.0  T
   4    -44.6634335 -0.479200E-04  0.520E-03    2.17       3.2  T
   5    -44.6634343 -0.763967E-06  0.185E-03    2.17       9.2  T
   6    -44.6634343 -0.153201E-07  0.926E-04    2.17      18.3  T
   7    -44.6634343 -0.172493E-07  0.335E-04    2.17      50.5  T
     SCC iter.                  ...        0 min,  0.006 sec
     gradient                   ...        0 min,  0.003 sec
 * total energy  :   -43.8777255 Eh     change       -0.1705910E-02 Eh
   gradient norm :     0.0069656 Eh/α   predicted    -0.1596644E-02 (  -6.41%)
   displ. norm   :     0.1653486 α      lambda       -0.4261517E-03
   maximum displ.:     0.0925886 α      in ANC's #5, #9, #2, ...

........................................................................
.............................. CYCLE    4 ..............................
........................................................................

 iter      E             dE          RMSdq      gap      omega  full diag
   1    -44.6635961 -0.446636E+02  0.626E-02    2.17       0.0  T
   2    -44.6635965 -0.368108E-06  0.377E-02    2.17       1.0  T
   3    -44.6635833  0.132127E-04  0.172E-02    2.17       1.0  T
   4    -44.6635978 -0.144974E-04  0.152E-03    2.17      11.1  T
   5    -44.6635978 -0.411711E-07  0.731E-04    2.17      23.1  T
   6    -44.6635978 -0.353960E-08  0.283E-04    2.17      59.8  T
     SCC iter.                  ...        0 min,  0.005 sec
     gradient                   ...        0 min,  0.003 sec
 * total energy  :   -43.8780306 Eh     change       -0.3050685E-03 Eh
   gradient norm :     0.0042247 Eh/α   predicted    -0.2189067E-03 ( -28.24%)
   displ. norm   :     0.2005210 α      lambda       -0.2699512E-03
   maximum displ.:     0.1287562 α      in ANC's #5, #2, #1, ...

........................................................................
.............................. CYCLE    5 ..............................
........................................................................

 iter      E             dE          RMSdq      gap      omega  full diag
   1    -44.6624480 -0.446624E+02  0.671E-02    2.17       0.0  T
   2    -44.6624484 -0.400671E-06  0.398E-02    2.17       1.0  T
   3    -44.6624420  0.643717E-05  0.122E-02    2.17       1.4  T
   4    -44.6624490 -0.702525E-05  0.133E-03    2.17      12.7  T
   5    -44.6624490 -0.355299E-07  0.627E-04    2.17      27.0  T
   6    -44.6624490 -0.757751E-09  0.321E-04    2.17      52.6  T
     SCC iter.                  ...        0 min,  0.005 sec
     gradient                   ...        0 min,  0.003 sec
 * total energy  :   -43.8782053 Eh     change       -0.1747778E-03 Eh
   gradient norm :     0.0030292 Eh/α   predicted    -0.1404035E-03 ( -19.67%)
   displ. norm   :     0.1328298 α      lambda       -0.9580750E-04
   maximum displ.:     0.0827724 α      in ANC's #5, #1, #2, ...

........................................................................
.............................. CYCLE    6 ..............................
........................................................................

 iter      E             dE          RMSdq      gap      omega  full diag
   1    -44.6621411 -0.446621E+02  0.440E-02    2.17       0.0  T
   2    -44.6621412 -0.147739E-06  0.259E-02    2.17       1.0  T
   3    -44.6621409  0.352138E-06  0.315E-03    2.17       5.4  T
   4    -44.6621413 -0.400315E-06  0.753E-04    2.17      22.4  T
   5    -44.6621413 -0.184295E-07  0.322E-04    2.17      52.5  T
     SCC iter.                  ...        0 min,  0.004 sec
     gradient                   ...        0 min,  0.003 sec
 * total energy  :   -43.8782832 Eh     change       -0.7787661E-04 Eh
   gradient norm :     0.0025978 Eh/α   predicted    -0.4879821E-04 ( -37.34%)
   displ. norm   :     0.1816234 α      lambda       -0.1170697E-03
   maximum displ.:     0.1033248 α      in ANC's #5, #1, #2, ...

........................................................................
.............................. CYCLE    7 ..............................
........................................................................

 iter      E             dE          RMSdq      gap      omega  full diag
   1    -44.6621210 -0.446621E+02  0.663E-02    2.17       0.0  T
   2    -44.6621213 -0.230623E-06  0.389E-02    2.17       1.0  T
   3    -44.6621211  0.175685E-06  0.259E-03    2.17       6.5  T
   4    -44.6621213 -0.237948E-06  0.903E-04    2.17      18.7  T
   5    -44.6621214 -0.252059E-07  0.420E-04    2.17      40.3  T
     SCC iter.                  ...        0 min,  0.004 sec
     gradient                   ...        0 min,  0.003 sec
 * total energy  :   -43.8783791 Eh     change       -0.9586832E-04 Eh
   gradient norm :     0.0021974 Eh/α   predicted    -0.6046680E-04 ( -36.93%)
   displ. norm   :     0.2541829 α      lambda       -0.1300903E-03
   maximum displ.:     0.1491273 α      in ANC's #1, #5, #2, ...

........................................................................
.............................. CYCLE    8 ..............................
........................................................................

 iter      E             dE          RMSdq      gap      omega  full diag
   1    -44.6620634 -0.446621E+02  0.984E-02    2.17       0.0  T
   2    -44.6620638 -0.420499E-06  0.577E-02    2.17       1.0  T
   3    -44.6620623  0.150474E-05  0.617E-03    2.17       2.7  T
   4    -44.6620640 -0.173490E-05  0.122E-03    2.17      13.8  T
   5    -44.6620640 -0.331747E-07  0.560E-04    2.17      30.2  T
   6    -44.6620640 -0.359670E-09  0.195E-04    2.17      86.5  T
     SCC iter.                  ...        0 min,  0.005 sec
     gradient                   ...        0 min,  0.003 sec
 * total energy  :   -43.8784797 Eh     change       -0.1005901E-03 Eh
   gradient norm :     0.0022440 Eh/α   predicted    -0.6925433E-04 ( -31.15%)
   displ. norm   :     0.2389447 α      lambda       -0.9466814E-04
   maximum displ.:     0.1472425 α      in ANC's #1, #2, #5, ...

........................................................................
.............................. CYCLE    9 ..............................
........................................................................

 iter      E             dE          RMSdq      gap      omega  full diag
   1    -44.6621985 -0.446622E+02  0.953E-02    2.17       0.0  T
   2    -44.6621988 -0.335982E-06  0.560E-02    2.17       1.0  T
   3    -44.6621958  0.304370E-05  0.855E-03    2.17       2.0  T
   4    -44.6621992 -0.338431E-05  0.995E-04    2.17      17.0  T
   5    -44.6621992 -0.140407E-07  0.515E-04    2.17      32.8  T
   6    -44.6621992 -0.193658E-09  0.191E-04    2.17      88.4  T
     SCC iter.                  ...        0 min,  0.005 sec
     gradient                   ...        0 min,  0.003 sec
 * total energy  :   -43.8785537 Eh     change       -0.7400484E-04 Eh
   gradient norm :     0.0021380 Eh/α   predicted    -0.5005665E-04 ( -32.36%)
   displ. norm   :     0.2048721 α      lambda       -0.7464278E-04
   maximum displ.:     0.1328413 α      in ANC's #1, #2, #5, ...

........................................................................
.............................. CYCLE   10 ..............................
........................................................................

 iter      E             dE          RMSdq      gap      omega  full diag
   1    -44.6627285 -0.446627E+02  0.822E-02    2.17       0.0  T
   2    -44.6627287 -0.234254E-06  0.483E-02    2.17       1.0  T
   3    -44.6627260  0.268440E-05  0.805E-03    2.17       2.1  T
   4    -44.6627290 -0.296886E-05  0.819E-04    2.17      20.6  T
   5    -44.6627290 -0.768469E-08  0.446E-04    2.17      37.9  T
   6    -44.6627290 -0.294499E-09  0.172E-04    2.17      98.4  T
     SCC iter.                  ...        0 min,  0.005 sec
     gradient                   ...        0 min,  0.003 sec
 * total energy  :   -43.8786129 Eh     change       -0.5923961E-04 Eh
   gradient norm :     0.0016857 Eh/α   predicted    -0.3889188E-04 ( -34.35%)
   displ. norm   :     0.2523204 α      lambda       -0.5747888E-04
   maximum displ.:     0.1730587 α      in ANC's #1, #2, #3, ...

........................................................................
.............................. CYCLE   11 ..............................
........................................................................

 iter      E             dE          RMSdq      gap      omega  full diag
   1    -44.6634551 -0.446635E+02  0.954E-02    2.17       0.0  T
   2    -44.6634555 -0.349411E-06  0.560E-02    2.17       1.0  T
   3    -44.6634520  0.345704E-05  0.926E-03    2.17       1.8  T
   4    -44.6634558 -0.383089E-05  0.993E-04    2.17      17.0  T
   5    -44.6634558 -0.121694E-07  0.533E-04    2.17      31.7  T
   6    -44.6634558 -0.418837E-09  0.221E-04    2.17      76.6  T
     SCC iter.                  ...        0 min,  0.005 sec
     gradient                   ...        0 min,  0.003 sec
 * total energy  :   -43.8786701 Eh     change       -0.5721013E-04 Eh
   gradient norm :     0.0013339 Eh/α   predicted    -0.2955316E-04 ( -48.34%)
   displ. norm   :     0.1036321 α      lambda       -0.1968622E-04
   maximum displ.:     0.0800473 α      in ANC's #1, #3, #4, ...

........................................................................
.............................. CYCLE   12 ..............................
........................................................................

 iter      E             dE          RMSdq      gap      omega  full diag
   1    -44.6634656 -0.446635E+02  0.316E-02    2.17       0.0  T
   2    -44.6634657 -0.647054E-07  0.185E-02    2.17       1.0  T
   3    -44.6634657  0.599016E-07  0.143E-03    2.17      11.8  T
   4    -44.6634657 -0.764993E-07  0.513E-04    2.17      33.0  T
   5    -44.6634657 -0.696328E-08  0.212E-04    2.17      79.9  T
     SCC iter.                  ...        0 min,  0.004 sec
     gradient                   ...        0 min,  0.003 sec
 * total energy  :   -43.8786939 Eh     change       -0.2375890E-04 Eh
   gradient norm :     0.0009583 Eh/α   predicted    -0.9892185E-05 ( -58.36%)
   displ. norm   :     0.0931392 α      lambda       -0.2039037E-04
   maximum displ.:     0.0655567 α      in ANC's #1, #3, #11, ...

........................................................................
.............................. CYCLE   13 ..............................
........................................................................

 iter      E             dE          RMSdq      gap      omega  full diag
   1    -44.6636319 -0.446636E+02  0.208E-02    2.17       0.0  T
   2    -44.6636320 -0.485435E-07  0.122E-02    2.17       1.4  T
   3    -44.6636319  0.113195E-06  0.168E-03    2.17      10.1  T
   4    -44.6636320 -0.127390E-06  0.468E-04    2.17      36.1  T
   5    -44.6636320 -0.604177E-08  0.186E-04    2.17      90.8  T
     SCC iter.                  ...        0 min,  0.004 sec
     gradient                   ...        0 min,  0.003 sec
 * total energy  :   -43.8787174 Eh     change       -0.2355295E-04 Eh
   gradient norm :     0.0011817 Eh/α   predicted    -0.1023971E-04 ( -56.52%)
   displ. norm   :     0.1201649 α      lambda       -0.2294383E-04
   maximum displ.:     0.0807972 α      in ANC's #1, #3, #2, ...

........................................................................
.............................. CYCLE   14 ..............................
........................................................................

 iter      E             dE          RMSdq      gap      omega  full diag
   1    -44.6631187 -0.446631E+02  0.272E-02    2.17       0.0  T
   2    -44.6631187 -0.524153E-07  0.160E-02    2.17       1.1  T
   3    -44.6631186  0.145327E-06  0.205E-03    2.17       8.2  T
   4    -44.6631188 -0.170112E-06  0.444E-04    2.17      38.1  T
   5    -44.6631188 -0.385487E-08  0.231E-04    2.17      73.2  T
     SCC iter.                  ...        0 min,  0.004 sec
     gradient                   ...        0 min,  0.003 sec
 * total energy  :   -43.8787443 Eh     change       -0.2685260E-04 Eh
   gradient norm :     0.0012619 Eh/α   predicted    -0.1154598E-04 ( -57.00%)
   displ. norm   :     0.1230543 α      lambda       -0.2036061E-04
   maximum displ.:     0.0855177 α      in ANC's #1, #3, #2, ...

........................................................................
.............................. CYCLE   15 ..............................
........................................................................

 iter      E             dE          RMSdq      gap      omega  full diag
   1    -44.6628308 -0.446628E+02  0.292E-02    2.17       0.0  T
   2    -44.6628309 -0.566059E-07  0.172E-02    2.16       1.0  T
   3    -44.6628308  0.110836E-06  0.180E-03    2.16       9.4  T
   4    -44.6628309 -0.137063E-06  0.443E-04    2.16      38.2  T
   5    -44.6628309 -0.328787E-08  0.233E-04    2.16      72.6  T
     SCC iter.                  ...        0 min,  0.004 sec
     gradient                   ...        0 min,  0.003 sec
 * total energy  :   -43.8787705 Eh     change       -0.2620176E-04 Eh
   gradient norm :     0.0012398 Eh/α   predicted    -0.1025059E-04 ( -60.88%)
   displ. norm   :     0.1443716 α      lambda       -0.2386610E-04
   maximum displ.:     0.1025896 α      in ANC's #1, #2, #3, ...

........................................................................
.............................. CYCLE   16 ..............................
........................................................................

 iter      E             dE          RMSdq      gap      omega  full diag
   1    -44.6629670 -0.446630E+02  0.369E-02    2.16       0.0  T
   2    -44.6629671 -0.885391E-07  0.217E-02    2.16       1.0  T
   3    -44.6629669  0.154066E-06  0.208E-03    2.16       8.1  T
   4    -44.6629671 -0.191179E-06  0.571E-04    2.16      29.6  T
   5    -44.6629671 -0.717188E-08  0.280E-04    2.16      60.4  T
     SCC iter.                  ...        0 min,  0.004 sec
     gradient                   ...        0 min,  0.003 sec
 * total energy  :   -43.8788009 Eh     change       -0.3042871E-04 Eh
   gradient norm :     0.0007153 Eh/α   predicted    -0.1204625E-04 ( -60.41%)
   displ. norm   :     0.1716778 α      lambda       -0.2679060E-04
   maximum displ.:     0.1252201 α      in ANC's #1, #2, #3, ...

........................................................................
.............................. CYCLE   17 ..............................
........................................................................

 iter      E             dE          RMSdq      gap      omega  full diag
   1    -44.6630046 -0.446630E+02  0.443E-02    2.16       0.0  T
   2    -44.6630047 -0.107586E-06  0.260E-02    2.16       1.0  T
   3    -44.6630046  0.134641E-06  0.206E-03    2.16       8.2  T
   4    -44.6630048 -0.183605E-06  0.605E-04    2.16      28.0  T
   5    -44.6630048 -0.567782E-08  0.328E-04    2.16      51.6  T
     SCC iter.                  ...        0 min,  0.004 sec
     gradient                   ...        0 min,  0.003 sec
 * total energy  :   -43.8788340 Eh     change       -0.3302920E-04 Eh
   gradient norm :     0.0008309 Eh/α   predicted    -0.1357167E-04 ( -58.91%)
   displ. norm   :     0.1671184 α      lambda       -0.2442286E-04
   maximum displ.:     0.1249682 α      in ANC's #1, #2, #3, ...

........................................................................
.............................. CYCLE   18 ..............................
........................................................................

 iter      E             dE          RMSdq      gap      omega  full diag
   1    -44.6629580 -0.446630E+02  0.441E-02    2.16       0.0  T
   2    -44.6629581 -0.102235E-06  0.259E-02    2.16       1.0  T
   3    -44.6629579  0.190486E-06  0.233E-03    2.16       7.3  T
   4    -44.6629581 -0.238611E-06  0.620E-04    2.16      27.3  T
   5    -44.6629581 -0.718696E-08  0.315E-04    2.16      53.6  T
     SCC iter.                  ...        0 min,  0.004 sec
     gradient                   ...        0 min,  0.003 sec
 * total energy  :   -43.8788652 Eh     change       -0.3126945E-04 Eh
   gradient norm :     0.0009979 Eh/α   predicted    -0.1236398E-04 ( -60.46%)
   displ. norm   :     0.1473030 α      lambda       -0.2158873E-04
   maximum displ.:     0.1132821 α      in ANC's #1, #3, #2, ...

........................................................................
.............................. CYCLE   19 ..............................
........................................................................

 iter      E             dE          RMSdq      gap      omega  full diag
   1    -44.6633557 -0.446634E+02  0.375E-02    2.16       0.0  T
   2    -44.6633557 -0.683360E-07  0.220E-02    2.16       1.0  T
   3    -44.6633557  0.630971E-07  0.155E-03    2.16      10.9  T
   4    -44.6633558 -0.940148E-07  0.499E-04    2.16      33.9  T
   5    -44.6633558 -0.351979E-08  0.279E-04    2.16      60.5  T
     SCC iter.                  ...        0 min,  0.004 sec
     gradient                   ...        0 min,  0.003 sec
 * total energy  :   -43.8788937 Eh     change       -0.2849345E-04 Eh
   gradient norm :     0.0008945 Eh/α   predicted    -0.1090057E-04 ( -61.74%)
   displ. norm   :     0.1384606 α      lambda       -0.2023101E-04
   maximum displ.:     0.1100971 α      in ANC's #1, #3, #4, ...

........................................................................
.............................. CYCLE   20 ..............................
........................................................................

 iter      E             dE          RMSdq      gap      omega  full diag
   1    -44.6632269 -0.446632E+02  0.359E-02    2.16       0.0  T
   2    -44.6632270 -0.631678E-07  0.211E-02    2.16       1.0  T
   3    -44.6632269  0.458480E-07  0.129E-03    2.16      13.1  T
   4    -44.6632270 -0.696772E-07  0.472E-04    2.16      35.8  T
   5    -44.6632270 -0.415967E-08  0.234E-04    2.16      72.3  T
     SCC iter.                  ...        0 min,  0.004 sec
     gradient                   ...        0 min,  0.003 sec
 * total energy  :   -43.8789191 Eh     change       -0.2542098E-04 Eh
   gradient norm :     0.0007321 Eh/α   predicted    -0.1020460E-04 ( -59.86%)
   displ. norm   :     0.1146177 α      lambda       -0.1548754E-04
   maximum displ.:     0.0942041 α      in ANC's #1, #3, #4, ...
 * RMSD in coord.:     0.4038487 α      energy gain  -0.1035254E-01 Eh

generating ANC from exact Hessian ...
Using Lindh-Hessian (1995)
 Shifting diagonal of input Hessian by    9.4561972070031329E-003
 Lowest  eigenvalues of input Hessian
    0.000000    0.000000    0.000000    0.000000    0.000000    0.000000
    0.010000    0.010446    0.010766    0.011666    0.012373    0.013274
    0.014782    0.015546    0.016493    0.017555    0.019192    0.021793
 Highest eigenvalues
    1.742618    1.896802    1.925248    1.963925    2.000628    2.026585


........................................................................
.............................. CYCLE   21 ..............................
........................................................................

 iter      E             dE          RMSdq      gap      omega  full diag
   1    -44.6631983 -0.446632E+02  0.295E-02    2.16       0.0  T
   2    -44.6631984 -0.477508E-07  0.174E-02    2.16       1.0  T
   3    -44.6631983  0.316313E-07  0.115E-03    2.16      14.7  T
   4    -44.6631984 -0.507976E-07  0.429E-04    2.16      39.4  T
   5    -44.6631984 -0.270114E-08  0.243E-04    2.16      69.6  T
     SCC iter.                  ...        0 min,  0.004 sec
     gradient                   ...        0 min,  0.003 sec
 * total energy  :   -43.8789374 Eh     change       -0.1823009E-04 Eh
   gradient norm :     0.0006365 Eh/α   predicted     0.0000000E+00 (-100.00%)
   displ. norm   :     0.0314842 α      lambda       -0.5806091E-05
   maximum displ.:     0.0270532 α      in ANC's #1, #2, #10, ...

........................................................................
.............................. CYCLE   22 ..............................
........................................................................

 iter      E             dE          RMSdq      gap      omega  full diag
   1    -44.6633396 -0.446633E+02  0.864E-03    2.16       0.0  T
   2    -44.6633396 -0.534773E-08  0.511E-03    2.16       3.3  T
   3    -44.6633396  0.414072E-08  0.369E-04    2.16      45.9  T
   4    -44.6633396 -0.583960E-08  0.124E-04    2.16     135.8  T
     SCC iter.                  ...        0 min,  0.004 sec
     gradient                   ...        0 min,  0.003 sec
 * total energy  :   -43.8789442 Eh     change       -0.6832158E-05 Eh
   gradient norm :     0.0003277 Eh/α   predicted    -0.2909016E-05 ( -57.42%)
   displ. norm   :     0.0460811 α      lambda       -0.6227685E-05
   maximum displ.:     0.0373403 α      in ANC's #1, #2, #10, ...

........................................................................
.............................. CYCLE   23 ..............................
........................................................................

 iter      E             dE          RMSdq      gap      omega  full diag
   1    -44.6634376 -0.446634E+02  0.995E-03    2.16       0.0  T
   2    -44.6634376 -0.626677E-08  0.586E-03    2.16       2.9  T
   3    -44.6634375  0.472976E-07  0.105E-03    2.16      16.1  T
   4    -44.6634376 -0.524240E-07  0.156E-04    2.16     108.3  T
   5    -44.6634376 -0.326729E-09  0.852E-05    2.16     198.4  T
     SCC iter.                  ...        0 min,  0.004 sec
     gradient                   ...        0 min,  0.003 sec
 * total energy  :   -43.8789524 Eh     change       -0.8190238E-05 Eh
   gradient norm :     0.0005433 Eh/α   predicted    -0.3117232E-05 ( -61.94%)
   displ. norm   :     0.0542447 α      lambda       -0.6150669E-05
   maximum displ.:     0.0439892 α      in ANC's #1, #2, #10, ...

........................................................................
.............................. CYCLE   24 ..............................
........................................................................

 iter      E             dE          RMSdq      gap      omega  full diag
   1    -44.6633595 -0.446634E+02  0.128E-02    2.15       0.0  T
   2    -44.6633595 -0.108851E-07  0.752E-03    2.15       2.2  T
   3    -44.6633594  0.534917E-07  0.109E-03    2.15      15.5  T
   4    -44.6633595 -0.604898E-07  0.190E-04    2.15      89.2  T
   5    -44.6633595 -0.522363E-09  0.109E-04    2.15     155.5  T
     SCC iter.                  ...        0 min,  0.004 sec
     gradient                   ...        0 min,  0.003 sec
 * total energy  :   -43.8789605 Eh     change       -0.8075978E-05 Eh
   gradient norm :     0.0002875 Eh/α   predicted    -0.3082137E-05 ( -61.84%)
   displ. norm   :     0.0501621 α      lambda       -0.4794917E-05
   maximum displ.:     0.0419144 α      in ANC's #1, #2, #10, ...

........................................................................
.............................. CYCLE   25 ..............................
........................................................................

 iter      E             dE          RMSdq      gap      omega  full diag
   1    -44.6633442 -0.446633E+02  0.131E-02    2.15       0.0  T
   2    -44.6633442 -0.788575E-08  0.768E-03    2.15       2.2  T
   3    -44.6633442  0.407337E-07  0.965E-04    2.15      17.5  T
   4    -44.6633442 -0.464979E-07  0.160E-04    2.15     105.4  T
     SCC iter.                  ...        0 min,  0.003 sec
     gradient                   ...        0 min,  0.003 sec
 * total energy  :   -43.8789670 Eh     change       -0.6503226E-05 Eh
   gradient norm :     0.0001958 Eh/α   predicted    -0.2401024E-05 ( -63.08%)
   displ. norm   :     0.0411559 α      lambda       -0.3736731E-05
   maximum displ.:     0.0353601 α      in ANC's #1, #2, #6, ...

........................................................................
.............................. CYCLE   26 ..............................
........................................................................

 iter      E             dE          RMSdq      gap      omega  full diag
   1    -44.6633465 -0.446633E+02  0.114E-02    2.15       0.0  T
   2    -44.6633465 -0.501885E-08  0.668E-03    2.15       2.5  T
   3    -44.6633465  0.385597E-07  0.944E-04    2.15      17.9  T
   4    -44.6633465 -0.434323E-07  0.124E-04    2.15     136.0  T
     SCC iter.                  ...        0 min,  0.004 sec
     gradient                   ...        0 min,  0.003 sec
 * total energy  :   -43.8789722 Eh     change       -0.5205515E-05 Eh
   gradient norm :     0.0001893 Eh/α   predicted    -0.1871357E-05 ( -64.05%)
   displ. norm   :     0.0351165 α      lambda       -0.3205074E-05
   maximum displ.:     0.0309099 α      in ANC's #1, #2, #6, ...

........................................................................
.............................. CYCLE   27 ..............................
........................................................................

 iter      E             dE          RMSdq      gap      omega  full diag
   1    -44.6633554 -0.446634E+02  0.987E-03    2.15       0.0  T
   2    -44.6633554 -0.360288E-08  0.580E-03    2.15       2.9  T
   3    -44.6633554  0.338259E-07  0.899E-04    2.15      18.8  T
   4    -44.6633554 -0.377593E-07  0.109E-04    2.15     154.4  T
     SCC iter.                  ...        0 min,  0.003 sec
     gradient                   ...        0 min,  0.003 sec
 * total energy  :   -43.8789767 Eh     change       -0.4484208E-05 Eh
   gradient norm :     0.0001863 Eh/α   predicted    -0.1604117E-05 ( -64.23%)
   displ. norm   :     0.0315087 α      lambda       -0.2848557E-05
   maximum displ.:     0.0285375 α      in ANC's #1, #6, #11, ...

   *** GEOMETRY OPTIMIZATION CONVERGED AFTER 27 ITERATIONS ***

------------------------------------------------------------------------
 total energy gain   :        -0.0104101 Eh       -6.5324 kcal/mol
 total RMSD          :         0.4350419 a0        0.2302 Å
 total power (kW/mol):        -1.0122817 (step) -100.4254 (real)
------------------------------------------------------------------------

 ANCopt (total)                0 d,  0 h,  0 min,  0.272 sec
 optimizer setup                ...        0 min,  0.000 sec (  0.025%)
 model hessian                  ...        0 min,  0.025 sec (  9.079%)
 ANC generation                 ...        0 min,  0.001 sec (  0.528%)
 coordinate transformation      ...        0 min,  0.000 sec (  0.060%)
 single point calculation       ...        0 min,  0.242 sec ( 88.995%)
 optimization log               ...        0 min,  0.002 sec (  0.635%)
 hessian update                 ...        0 min,  0.000 sec (  0.080%)
 rational function              ...        0 min,  0.001 sec (  0.379%)

================
 final structure:
================
35
 xtb: 6.7.1 (edcfbbe)
C            2.73057138730869        1.01264351685813       -0.55049554193462
C            1.52595172736072        1.17385023980516        0.36601740795680
C            0.94021573747755       -0.19665849025215        0.81555188379763
C            1.96400672956670       -0.91658346736739        1.62841212232177
C            2.52854923391112       -2.08328954982717        1.23761986636399
C            2.11699213173884       -2.72067827602946        0.05663903711131
C            1.05618767287557       -2.18276534563269       -0.67871238029738
C            0.44229099377050       -1.01245129693281       -0.33983757766684
C           -0.76579291211350       -0.55576174636328       -1.13178114574984
C           -0.34954666243131        0.17225303552613       -2.41754185736222
C           -1.73833926014452        0.21512953918657       -0.27018131330156
C           -2.02081961786576        1.56329659083721       -0.43602736261753
C           -2.91898007278068        2.20503572997764        0.40186506647987
C           -3.54855715239737        1.51085307783601        1.41820046891808
C           -3.27810894942852        0.16320030025071        1.59157091873273
C           -2.38381240905885       -0.47466573703786        0.75418641773856
H            3.53335755283312        0.49302144380335       -0.03258893019378
H            2.46930489617005        0.43319360622319       -1.43236860526501
H            3.09733037848040        1.98657054024212       -0.86892094118720
H            1.82196194102638        1.72498542473836        1.26150749530963
H            0.74300222605045        1.74742089134936       -0.12996788531973
H            0.08677910512163        0.05850096695080        1.46514771579052
H            2.27388239861351       -0.42953558638427        2.54179392119697
H            3.29483380033645       -2.54517639661756        1.84484628650282
H            2.57938702369141       -3.64349275017193       -0.25471538561940
H            0.69191634755862       -2.73756266218598       -1.53458265551214
H           -1.28956937861812       -1.46730399425402       -1.45300887493345
H            0.20974326879433        1.07868867692240       -2.20787306210505
H            0.28210014312994       -0.48265857272697       -3.01396399865851
H           -1.23005694159599        0.42821383087146       -3.00374774950539
H           -1.55038196324458        2.12986003337910       -1.22484276232191
H           -3.12668210961686        3.25549369772231        0.25629562876598
H           -4.24792658252440        2.01363768374152        2.06977530939729
H           -3.76702210889367       -0.39107359535866        2.37966317193272
H           -2.17296857509843       -1.52649135907487        0.89196531123578

 Bond Distances (Angstroems)
 ---------------------------
C1-C2=1.5222         C1-H17=1.0875        C1-H18=1.0871        C1-H19=1.0883        C2-C1=1.5222         C2-C3=1.5567         
C2-H20=1.0924        C2-H21=1.0900        C3-C2=1.5567         C3-C4=1.4924         C3-C8=1.4995         C3-H22=1.1025        
C4-C3=1.4924         C4-C5=1.3537         C4-H23=1.0805        C5-C4=1.3537         C5-C6=1.4037         C5-H24=1.0813        
C6-C5=1.4037         C6-C7=1.3984         C6-H25=1.0781        C7-C6=1.3984         C7-C8=1.3643         C7-H26=1.0831        
C8-C3=1.4995         C8-C7=1.3643         C8-C9=1.5150         C9-C8=1.5150         C9-C10=1.5351        C9-C11=1.5108        
C9-H27=1.0993        C10-C9=1.5351        C10-H28=1.0855       C10-H29=1.0879       C10-H30=1.0883       C11-C9=1.5108        
C11-C12=1.3874       C11-C16=1.3935       C12-C11=1.3874       C12-C13=1.3859       C12-H31=1.0791       C13-C12=1.3859       
C13-C14=1.3825       C13-H32=1.0806       C14-C13=1.3825       C14-C15=1.3854       C14-H33=1.0800       C15-C14=1.3854       
C15-C16=1.3813       C15-H34=1.0804       C16-C11=1.3935       C16-C15=1.3813       C16-H35=1.0816       H17-C1=1.0875        
H18-C1=1.0871        H19-C1=1.0883        H20-C2=1.0924        H21-C2=1.0900        H22-C3=1.1025        H23-C4=1.0805        
H24-C5=1.0813        H25-C6=1.0781        H26-C7=1.0831        H27-C9=1.0993        H28-C10=1.0855       H29-C10=1.0879       
H30-C10=1.0883       H31-C12=1.0791       H32-C13=1.0806       H33-C14=1.0800       H34-C15=1.0804       H35-C16=1.0816       
 C  H  Rav=1.0860 sigma=0.0065  Rmin=1.0781  Rmax=1.1025    19
 C  C  Rav=1.4393 sigma=0.0687  Rmin=1.3537  Rmax=1.5567    17

 selected bond angles (degree)
 --------------------
H17-C1-C2=110.37               H18-C1-C2=110.77               H18-C1-H17=108.00              H19-C1-C2=110.37               
H19-C1-H17=108.55              H19-C1-H18=108.70              C3-C2-C1=112.23                H20-C2-C1=109.42               
H20-C2-C3=108.02               H21-C2-C1=110.50               H21-C2-C3=108.93               H21-C2-H20=107.59              
C4-C3-C2=108.90                C8-C3-C2=112.42                C8-C3-C4=112.65                H22-C3-C2=104.93               
H22-C3-C4=108.77               H22-C3-C8=108.84               C5-C4-C3=123.00                H23-C4-C3=116.09               
H23-C4-C5=120.86               C6-C5-C4=120.79                H24-C5-C4=120.10               H24-C5-C6=119.10               
C7-C6-C5=119.35                H25-C6-C5=120.39               H25-C6-C7=120.18               C8-C7-C6=122.73                
H26-C7-C6=118.27               H26-C7-C8=118.97               C7-C8-C3=120.58                C9-C8-C3=120.24                
C9-C8-C7=119.18                C10-C9-C8=111.38               C11-C9-C8=111.66               C11-C9-C10=114.22              
H27-C9-C8=106.42               H27-C9-C10=106.12              H27-C9-C11=106.44              H28-C10-C9=111.96              
H29-C10-C9=109.34              H29-C10-H28=108.02             H30-C10-C9=110.08              H30-C10-H28=108.93             
H30-C10-H29=108.42             

 selected dihedral angles (degree)
 ---------------------------------
C3-C2-C1-H17=298.35           C3-C2-C1-H18= 57.92           C3-C2-C1-H19=178.36           H20-C2-C1-H17= 58.26          
H20-C2-C1-H18=177.83          H20-C2-C1-H19=298.27          H21-C2-C1-H17=176.55          H21-C2-C1-H18=296.12          
H21-C2-C1-H19= 56.56          C4-C3-C2-C1= 63.66            C4-C3-C2-H20=302.94           C4-C3-C2-H21=186.35           
C8-C3-C2-C1=298.10            C8-C3-C2-H20=177.39           C8-C3-C2-H21= 60.80           H22-C3-C2-C1=179.97           
H22-C3-C2-H20= 59.25          H22-C3-C2-H21=302.67          C5-C4-C3-C2=244.46            C5-C4-C3-C8=  9.89            
C5-C4-C3-H22=130.64           H23-C4-C3-C2= 61.69           H23-C4-C3-C8=187.11           H23-C4-C3-H22=307.86          
C6-C5-C4-C3=356.55            C6-C5-C4-H23=179.45           H24-C5-C4-C3=177.58           H24-C5-C4-H23=  0.48          
C7-C6-C5-C4=356.12            C7-C6-C5-H24=175.11           H25-C6-C5-C4=179.25           H25-C6-C5-H24=358.24          
C8-C7-C6-C5=  3.80            C8-C7-C6-H25=180.68           H26-C7-C6-C5=185.67           H26-C7-C6-H25=  2.54          
C7-C8-C3-C2=113.72            C7-C8-C3-C4=350.23            C7-C8-C3-H22=229.52           C9-C8-C3-C2=292.71            
C9-C8-C3-C4=169.23            C9-C8-C3-H22= 48.51           C3-C8-C7-C6=  3.54            C3-C8-C7-H26=181.66           
C9-C8-C7-C6=184.54            C9-C8-C7-H26=  2.66           C10-C9-C8-C3= 98.13           C10-C9-C8-C7=277.14           
C11-C9-C8-C3=329.12           C11-C9-C8-C7=148.12           H27-C9-C8-C3=213.36           H27-C9-C8-C7= 32.37           
H28-C10-C9-C8=297.32          H28-C10-C9-C11= 64.96         H28-C10-C9-H27=181.91         H29-C10-C9-C8= 57.00          
H29-C10-C9-C11=184.63         H29-C10-C9-H27=301.58         H30-C10-C9-C8=176.00          H30-C10-C9-C11=303.64         
H30-C10-C9-H27= 60.58         
           -------------------------------------------------
          |                Final Singlepoint                |
           -------------------------------------------------

          ...................................................
          :                      SETUP                      :
          :.................................................:
          :  # basis functions                  83          :
          :  # atomic orbitals                  83          :
          :  # shells                           51          :
          :  # electrons                        83          :
          :  max. iterations                   250          :
          :  Hamiltonian                  GFN2-xTB          :
          :  restarted?                      false          :
          :  GBSA solvation                  false          :
          :  PC potential                    false          :
          :  electronic temp.          300.0000000     K    :
          :  accuracy                    1.0000000          :
          :  -> integral cutoff          0.2500000E+02      :
          :  -> integral neglect         0.1000000E-07      :
          :  -> SCF convergence          0.1000000E-05 Eh   :
          :  -> wf. convergence          0.1000000E-03 e    :
          :  Broyden damping             0.4000000          :
          :  net charge                          0          :
          :  unpaired electrons                  0          :
          ...................................................

 iter      E             dE          RMSdq      gap      omega  full diag
   1    -44.6633554 -0.446634E+02  0.664E-05    2.15       0.0  T
   2    -44.6633554 -0.281659E-10  0.453E-05    2.15     373.1  T
   3    -44.6633554 -0.476064E-10  0.251E-05    2.15     674.7  T

   *** convergence criteria satisfied after 3 iterations ***

         #    Occupation            Energy/Eh            Energy/eV
      -------------------------------------------------------------
         1        2.0000           -0.6436470             -17.5145
       ...           ...                  ...                  ...
        36        2.0000           -0.4179309             -11.3725
        37        2.0000           -0.4107338             -11.1766
        38        2.0000           -0.4094122             -11.1407
        39        2.0000           -0.4006571             -10.9024
        40        2.0000           -0.3925002             -10.6805
        41        2.0000           -0.3878133             -10.5529
        42        1.0000           -0.2993282              -8.1451 (HOMO)
        43                         -0.2202331              -5.9928 (LUMO)
        44                         -0.2190868              -5.9617
        45                         -0.2047213              -5.5707
        46                         -0.1223384              -3.3290
        47                         -0.0908694              -2.4727
       ...                                ...                  ...
        83                          0.6689211              18.2023
      -------------------------------------------------------------
                  HL-Gap            0.0790951 Eh            2.1523 eV
             Fermi-level           -0.3016757 Eh           -8.2090 eV

 SCC (total)                   0 d,  0 h,  0 min,  0.007 sec
 SCC setup                      ...        0 min,  0.000 sec (  0.728%)
 Dispersion                     ...        0 min,  0.000 sec (  1.304%)
 classical contributions        ...        0 min,  0.000 sec (  0.320%)
 integral evaluation            ...        0 min,  0.001 sec ( 13.912%)
 iterations                     ...        0 min,  0.003 sec ( 37.170%)
 molecular gradient             ...        0 min,  0.003 sec ( 43.154%)
 printout                       ...        0 min,  0.000 sec (  3.292%)

         :::::::::::::::::::::::::::::::::::::::::::::::::::::
         ::                     SUMMARY                     ::
         :::::::::::::::::::::::::::::::::::::::::::::::::::::
         :: total energy             -43.878976664634 Eh    ::
         :: gradient norm              0.000187748758 Eh/a0 ::
         :: HOMO-LUMO gap              2.152285931240 eV    ::
         ::.................................................::
         :: SCC energy               -44.662685331470 Eh    ::
         :: -> isotropic ES            0.004270785813 Eh    ::
         :: -> anisotropic ES          0.008721607617 Eh    ::
         :: -> anisotropic XC          0.028541574477 Eh    ::
         :: -> dispersion             -0.037227169941 Eh    ::
         :: repulsion energy           0.783708666835 Eh    ::
         :: add. restraining           0.000000000000 Eh    ::
         :: total charge              -0.000000000000 e     ::
         :::::::::::::::::::::::::::::::::::::::::::::::::::::

           -------------------------------------------------
          |                Property Printout                |
           -------------------------------------------------

    * Orbital Energies and Occupations

         #    Occupation            Energy/Eh            Energy/eV
      -------------------------------------------------------------
         1        2.0000           -0.6436470             -17.5145
       ...           ...                  ...                  ...
        30        2.0000           -0.4531253             -12.3302
        31        2.0000           -0.4440672             -12.0837
        32        2.0000           -0.4416260             -12.0173
        33        2.0000           -0.4348378             -11.8325
        34        2.0000           -0.4292636             -11.6809
        35        2.0000           -0.4221515             -11.4873
        36        2.0000           -0.4179309             -11.3725
        37        2.0000           -0.4107338             -11.1766
        38        2.0000           -0.4094122             -11.1407
        39        2.0000           -0.4006571             -10.9024
        40        2.0000           -0.3925002             -10.6805
        41        2.0000           -0.3878133             -10.5529
        42        1.0000           -0.2993282              -8.1451 (HOMO)
        43                         -0.2202331              -5.9928 (LUMO)
        44                         -0.2190868              -5.9617
        45                         -0.2047213              -5.5707
        46                         -0.1223384              -3.3290
        47                         -0.0908694              -2.4727
        48                          0.0742218               2.0197
        49                          0.0754707               2.0537
        50                          0.0928031               2.5253
        51                          0.1088511               2.9620
        52                          0.1181707               3.2156
        53                          0.1218413               3.3155
       ...                                ...                  ...
        83                          0.6689211              18.2023
      -------------------------------------------------------------
                  HL-Gap            0.0790951 Eh            2.1523 eV
             Fermi-level           -0.3016757 Eh           -8.2090 eV

     #   Z          covCN         q      C6AA      α(0)
     1   6 C        3.751    -0.100    22.469     6.760
     2   6 C        3.803    -0.047    21.418     6.589
     3   6 C        3.859    -0.014    20.792     6.485
     4   6 C        2.911    -0.041    29.022     8.834
     5   6 C        2.903    -0.032    28.807     8.800
     6   6 C        2.915    -0.045    29.114     8.848
     7   6 C        2.909    -0.039    28.957     8.824
     8   6 C        2.959    -0.000    28.037     8.685
     9   6 C        3.861    -0.022    20.930     6.506
    10   6 C        3.753    -0.098    22.439     6.755
    11   6 C        2.970     0.012    27.736     8.639
    12   6 C        2.923    -0.038    28.952     8.824
    13   6 C        2.920    -0.032    28.796     8.800
    14   6 C        2.920    -0.034    28.842     8.807
    15   6 C        2.918    -0.031    28.775     8.797
    16   6 C        2.928    -0.038    28.956     8.825
    17   1 H        0.925     0.036     2.504     2.475
    18   1 H        0.925     0.039     2.460     2.453
    19   1 H        0.925     0.031     2.571     2.507
    20   1 H        0.924     0.030     2.586     2.515
    21   1 H        0.925     0.036     2.508     2.477
    22   1 H        0.923     0.046     2.373     2.409
    23   1 H        0.926     0.022     2.698     2.569
    24   1 H        0.925     0.023     2.683     2.561
    25   1 H        0.926     0.022     2.699     2.569
    26   1 H        0.925     0.021     2.719     2.579
    27   1 H        0.923     0.042     2.418     2.432
    28   1 H        0.925     0.042     2.429     2.437
    29   1 H        0.925     0.035     2.519     2.482
    30   1 H        0.925     0.036     2.506     2.475
    31   1 H        0.926     0.032     2.558     2.501
    32   1 H        0.926     0.027     2.631     2.537
    33   1 H        0.926     0.027     2.629     2.536
    34   1 H        0.926     0.027     2.623     2.533
    35   1 H        0.925     0.026     2.640     2.541

 Mol. C6AA /au·bohr⁶  :      12655.863615
 Mol. C8AA /au·bohr⁸  :     299441.230611
 Mol. α(0) /au        :        177.360987


Wiberg/Mayer (AO) data.
largest (>0.10) Wiberg bond orders for each atom

 ---------------------------------------------------------------------------
     #   Z sym  total        # sym  WBO       # sym  WBO       # sym  WBO
 ---------------------------------------------------------------------------
     1   6 C    3.997 --     2 C    1.022    17 H    0.986    19 H    0.986
                            18 H    0.985
     2   6 C    3.992 --     1 C    1.022    20 H    0.977    21 H    0.972
                             3 C    0.931
     3   6 C    3.996 --     4 C    1.038     8 C    1.027     2 C    0.931
                            22 H    0.922
     4   6 C    3.924 --     5 C    1.635     3 C    1.038    23 H    0.971
     5   6 C    3.993 --     4 C    1.635     6 C    1.303    24 H    0.968
     6   6 C    3.878 --     7 C    1.337     5 C    1.303    25 H    0.974
     7   6 C    3.992 --     8 C    1.572     6 C    1.337    26 H    0.965
     8   6 C    3.912 --     7 C    1.572     3 C    1.027     9 C    0.991
     9   6 C    3.994 --    11 C    0.996     8 C    0.991    10 C    0.986
                            27 H    0.948
    10   6 C    3.996 --     9 C    0.986    29 H    0.986    30 H    0.985
                            28 H    0.981
    11   6 C    3.988 --    12 C    1.422    16 C    1.397     9 C    0.996
                            14 C    0.110
    12   6 C    3.991 --    13 C    1.434    11 C    1.422    31 H    0.966
                            15 C    0.108
    13   6 C    3.992 --    14 C    1.448    12 C    1.434    32 H    0.971
                            16 C    0.112
    14   6 C    3.992 --    13 C    1.448    15 C    1.428    33 H    0.972
                            11 C    0.110
    15   6 C    3.992 --    16 C    1.457    14 C    1.428    34 H    0.971
                            12 C    0.108
    16   6 C    3.992 --    15 C    1.457    11 C    1.397    35 H    0.970
                            13 C    0.112
    17   1 H    0.999 --     1 C    0.986
    18   1 H    0.998 --     1 C    0.985
    19   1 H    0.999 --     1 C    0.986
    20   1 H    0.999 --     2 C    0.977
    21   1 H    0.998 --     2 C    0.972
    22   1 H    0.996 --     3 C    0.922
    23   1 H    0.999 --     4 C    0.971
    24   1 H    0.999 --     5 C    0.968
    25   1 H    0.999 --     6 C    0.974
    26   1 H    0.999 --     7 C    0.965
    27   1 H    0.998 --     9 C    0.948
    28   1 H    0.998 --    10 C    0.981
    29   1 H    0.998 --    10 C    0.986
    30   1 H    0.997 --    10 C    0.985
    31   1 H    0.999 --    12 C    0.966
    32   1 H    0.999 --    13 C    0.971
    33   1 H    0.999 --    14 C    0.972
    34   1 H    0.999 --    15 C    0.971
    35   1 H    0.999 --    16 C    0.970
 ---------------------------------------------------------------------------

Topologies differ in total number of bonds
Writing topology from bond orders to xtbtopo.mol

molecular dipole:
                 x           y           z       tot (Debye)
 q only:       -0.051       0.253      -0.180
   full:       -0.095       0.255      -0.146       0.785
molecular quadrupole (traceless):
                xx          xy          yy          xz          yz          zz
 q only:       -1.483       1.396      -0.037      -0.230       0.178       1.520
  q+dip:       -3.590      -1.058       2.526      -0.702       1.360       1.064
   full:       -2.246       0.751       0.822      -0.200       0.757       1.423

           -------------------------------------------------
          |                Geometry Summary                 |
           -------------------------------------------------

      molecular mass/u    :      211.3226486
   center of mass at/Å    :       -0.1926043      -0.1107253       0.1273270
  moments of inertia/u·Å² :        0.5447457E+03   0.1376256E+04   0.1431038E+04
rotational constants/cm⁻¹ :        0.3094588E-01   0.1224890E-01   0.1178000E-01

 * 31 selected distances

     #   Z          #   Z                                           value/Å
     1   6 C        2   6 C                                       1.5221999
     4   6 C        5   6 C                                       1.3537467
     5   6 C        6   6 C                                       1.4036950
     6   6 C        7   6 C                                       1.3983556
     7   6 C        8   6 C                                       1.3643096
     9   6 C       10   6 C                                       1.5350725 (max)
    11   6 C       12   6 C                                       1.3873914
    12   6 C       13   6 C                                       1.3858519
    13   6 C       14   6 C                                       1.3824597
    14   6 C       15   6 C                                       1.3854125
    11   6 C       16   6 C                                       1.3934786
    15   6 C       16   6 C                                       1.3812504
     1   6 C       17   1 H                                       1.0875202
     1   6 C       18   1 H                                       1.0870707
     1   6 C       19   1 H                                       1.0883202
     2   6 C       20   1 H                                       1.0923712
     2   6 C       21   1 H                                       1.0899518
     3   6 C       22   1 H                                       1.1024679
     4   6 C       23   1 H                                       1.0805115
     5   6 C       24   1 H                                       1.0813212
     6   6 C       25   1 H                                       1.0781175 (min)
     7   6 C       26   1 H                                       1.0830548
     9   6 C       27   1 H                                       1.0992900
    10   6 C       28   1 H                                       1.0855377
    10   6 C       29   1 H                                       1.0879368
    10   6 C       30   1 H                                       1.0883252
    12   6 C       31   1 H                                       1.0791365
    13   6 C       32   1 H                                       1.0806446
    14   6 C       33   1 H                                       1.0800278
    15   6 C       34   1 H                                       1.0804375
    16   6 C       35   1 H                                       1.0815616

 * 2 distinct bonds (by element types)

   Z      Z             #   av. dist./Å        max./Å        min./Å
   1 H    6 C          19     1.0859792     1.1024679     1.0781175
   6 C    6 C          12     1.4077687     1.5350725     1.3537467


optimized geometry written to: xtbopt.xyz


           -------------------------------------------------
          | TOTAL ENERGY              -43.878976664634 Eh   |
          | GRADIENT NORM               0.000187748758 Eh/α |
          | HOMO-LUMO GAP               2.152285931240 eV   |
           -------------------------------------------------

------------------------------------------------------------------------
 * finished run on 2025/09/15 at 14:21:06.883     
------------------------------------------------------------------------
 total:
 * wall-time:     0 d,  0 h,  0 min,  0.323 sec
 *  cpu-time:     0 d,  0 h,  0 min,  1.275 sec
 * ratio c/w:     3.942 speedup
 SCF:
 * wall-time:     0 d,  0 h,  0 min,  0.024 sec
 *  cpu-time:     0 d,  0 h,  0 min,  0.092 sec
 * ratio c/w:     3.837 speedup
 ANC optimizer:
 * wall-time:     0 d,  0 h,  0 min,  0.280 sec
 *  cpu-time:     0 d,  0 h,  0 min,  1.120 sec
 * ratio c/w:     4.000 speedup

