35
 energy: -43.868566606274 gnorm: 0.069512567558 xtb: 6.7.1 (edcfbbe)
C            2.90740000000000        0.99760000000000       -0.69670000000000
C            1.74610000000000        1.19880000000000        0.27150000000000
C            1.08330000000000       -0.10110000000000        0.77550000000000
C            2.07290000000000       -0.85550000000000        1.66210000000000
C            2.51200000000000       -2.09320000000000        1.39330000000000
C            2.02830000000000       -2.75080000000000        0.20990000000000
C            0.94180000000000       -2.22140000000000       -0.57510000000000
C            0.47170000000000       -0.97640000000000       -0.34000000000000
C           -0.74280000000000       -0.47750000000000       -1.12970000000000
C           -0.32510000000000        0.29590000000000       -2.38910000000000
C           -1.79740000000000        0.20580000000000       -0.26460000000000
C           -2.04130000000000        1.58680000000000       -0.29880000000000
C           -3.01510000000000        2.16190000000000        0.52250000000000
C           -3.75880000000000        1.36740000000000        1.39130000000000
C           -3.52940000000000       -0.00430000000000        1.44220000000000
C           -2.55740000000000       -0.57970000000000        0.62210000000000
H            3.72840000000000        0.44520000000000       -0.22990000000000
H            2.59780000000000        0.45900000000000       -1.59660000000000
H            3.30080000000000        1.96990000000000       -1.01100000000000
H            2.11560000000000        1.77170000000000        1.13260000000000
H            0.99660000000000        1.84090000000000       -0.20140000000000
H            0.26880000000000        0.18620000000000        1.45290000000000
H            2.42680000000000       -0.34520000000000        2.55370000000000
H            3.21570000000000       -2.60740000000000        2.03780000000000
H            2.43610000000000       -3.72130000000000       -0.05110000000000
H            0.51490000000000       -2.86670000000000       -1.33640000000000
H           -1.26000000000000       -1.36490000000000       -1.52900000000000
H            0.18870000000000        1.23390000000000       -2.16550000000000
H            0.34860000000000       -0.30650000000000       -3.00940000000000
H           -1.20150000000000        0.54010000000000       -3.00060000000000
H           -1.47790000000000        2.24050000000000       -0.95880000000000
H           -3.19130000000000        3.23390000000000        0.48360000000000
H           -4.51440000000000        1.81730000000000        2.02950000000000
H           -4.10410000000000       -0.62800000000000        2.12160000000000
H           -2.38600000000000       -1.65320000000000        0.68150000000000
35
 energy: -43.876019589429 gnorm: 0.029349723624 xtb: 6.7.1 (edcfbbe)
C            2.89584343039652        0.98777492281482       -0.69245249737117
C            1.73226215104876        1.20447161499863        0.26785981212593
C            1.06985711213459       -0.09611632628095        0.77302916668089
C            2.05085061205641       -0.84786925305878        1.63691974059975
C            2.49771419952705       -2.08790511443168        1.35313545400689
C            2.01564045911684       -2.76129605517651        0.20838965827751
C            0.96210734714837       -2.20892015009122       -0.55508131688711
C            0.47128322149367       -0.96436729602046       -0.32068237916182
C           -0.73672683058421       -0.48216121234122       -1.11673954508225
C           -0.32711685309644        0.30531111113992       -2.36985783786470
C           -1.77064466256682        0.21363371126243       -0.24615578003772
C           -2.02524953810541        1.58128554720592       -0.28861014637370
C           -3.00164259489754        2.15061174652889        0.51802673794680
C           -3.74304682447946        1.36311698689364        1.38200465970638
C           -3.50724563563737       -0.00089836058399        1.43167405184186
C           -2.53288660529444       -0.56708889570459        0.62479282514725
H            3.70134726490943        0.42869413764553       -0.21769142087167
H            2.58263567737334        0.44284410589223       -1.58119735298255
H            3.29489868958143        1.95336831671550       -1.00768031251662
H            2.10026399072493        1.75733075715904        1.13951884921061
H            0.97724115544793        1.83412981264503       -0.20806851501215
H            0.24419832731170        0.21385819364945        1.43125588387659
H            2.40118613424471       -0.32856340019310        2.52072224955568
H            3.20837949079871       -2.59398575547215        1.99235667573146
H            2.41433937557374       -3.73120000972247       -0.05044132482529
H            0.54360011072513       -2.83688547003355       -1.33145398629423
H           -1.23553991367831       -1.38729662596924       -1.49717999726010
H            0.19010344573626        1.23503264366637       -2.14386653225226
H            0.34073968259800       -0.30639595895713       -2.97803060864767
H           -1.20618615556441        0.53978757387065       -2.97315354556628
H           -1.47371326969029        2.22536483244544       -0.95873313987598
H           -3.18217705371848        3.21678624459383        0.47287649784205
H           -4.50117377705943        1.80927491453637        2.01289785276913
H           -4.08492698418804       -0.62563781703330        2.10061459642419
H           -2.36641517938680       -1.63638947259335        0.67090152714033
35
 energy: -43.877725499201 gnorm: 0.006965917447 xtb: 6.7.1 (edcfbbe)
C            2.87712190015668        0.97247801386422       -0.68497631872261
C            1.71384213987059        1.20916788058893        0.27010773110298
C            1.04984426616600       -0.09776378694356        0.77553939124198
C            2.02808644148901       -0.84009421447784        1.62690419518492
C            2.48602862102941       -2.07830834720300        1.32810736375286
C            2.00821480376093       -2.76216618998033        0.20275372553227
C            0.97969079891303       -2.19652665938220       -0.55522758245316
C            0.47122574165298       -0.95447526680386       -0.31373650992852
C           -0.73126058353972       -0.48575570082444       -1.11087215778403
C           -0.32513722152560        0.30552930314944       -2.36128977378420
C           -1.75653352161555        0.21385868884940       -0.24329247657349
C           -2.00835357273201        1.57712755496790       -0.28714224450063
C           -2.98174701737528        2.14528242645645        0.51732999373883
C           -3.72405718271882        1.36099943866425        1.37979932739960
C           -3.48432123166260       -0.00111115354575        1.43192867953371
C           -2.51217036130775       -0.56426503561378        0.62827636639127
H            3.66700314758489        0.40558451394847       -0.19779591910000
H            2.55719704589169        0.41951042173868       -1.56389818590957
H            3.28853455180599        1.92812123318478       -1.00738183336078
H            2.08012859665873        1.75450163430662        1.14415294855040
H            0.95911234990450        1.83198187488152       -0.21022591478211
H            0.21764084350991        0.23775966101147        1.41942410538406
H            2.38705045925298       -0.31215850809679        2.49938013032827
H            3.21571609547824       -2.56549560224919        1.96061731994642
H            2.39304898990488       -3.73754849856932       -0.04738851576274
H            0.55847831910127       -2.80423326565829       -1.34684626761208
H           -1.22008762025672       -1.39796626189134       -1.48143533539232
H            0.19186813897177        1.22833267771600       -2.12252140606468
H            0.33951981452451       -0.30589888603003       -2.96832921609450
H           -1.20886382477878        0.54208518478676       -2.95126998157797
H           -1.45660625614749        2.21532009895597       -0.95919296136433
H           -3.16780436677025        3.20807774046461        0.46213978683488
H           -4.48867944545004        1.80481049860829        2.00053068087848
H           -4.06569650813984       -0.62707604337983        2.09314024125840
H           -2.33823435160733       -1.62998542549410        0.67259061370847
35
 energy: -43.878030567741 gnorm: 0.004225214884 xtb: 6.7.1 (edcfbbe)
C            2.86243403281893        0.96035195107903       -0.67827041867921
C            1.69978838440057        1.21183801795930        0.27343886575298
C            1.03480008753363       -0.09914632407096        0.78005429004359
C            2.01971103518935       -0.83442166696995        1.62698846827660
C            2.48740447879465       -2.06845669989920        1.32158263458166
C            2.00823967618272       -2.75893366906509        0.19960230885700
C            0.98393759828723       -2.19236278072504       -0.56215521685039
C            0.46773436212141       -0.95340890426185       -0.31383160968971
C           -0.73037657608965       -0.48906164005602       -1.11417357221285
C           -0.32401347166140        0.30433007431195       -2.36329691499611
C           -1.74943166213697        0.21252202677694       -0.24445538052402
C           -1.99806028505689        1.57655996402176       -0.28897502576854
C           -2.97166826381713        2.14501980549082        0.51533322469827
C           -3.71402045684015        1.36088519475758        1.37865248039464
C           -3.47227078660128       -0.00148827092156        1.43522299610356
C           -2.50013441929068       -0.56530068997691        0.63228544145230
H            3.64404598640207        0.38831102567412       -0.18356873679094
H            2.53707348353204        0.40184106596869       -1.55185128436448
H            3.28436374531093        1.90842310073115       -1.00857367756540
H            2.06502284809430        1.75776243220630        1.14655483199166
H            0.94589853828221        1.83281368631417       -0.20935641583969
H            0.20091285563517        0.24143610571723        1.42005052551947
H            2.38128073601012       -0.30524146084360        2.49689318902319
H            3.22434411995698       -2.54497263906741        1.95411383672889
H            2.38975060866613       -3.73663373061848       -0.04625514927091
H            0.56681308553630       -2.78582769440548       -1.36792764725429
H           -1.21961690868550       -1.40108612223888       -1.48254856702910
H            0.19703572478701        1.22327719546002       -2.11865085270391
H            0.33713066410790       -0.30647846498745       -2.97396821448038
H           -1.20887051210521        0.54762159679735       -2.94799404656126
H           -1.44572559830256        2.21286998923765       -0.96259060600555
H           -3.15529965989033        3.20819599509103        0.46044134739284
H           -4.47769208471094        1.80525745983201        1.99936295891464
H           -4.05011652983199       -0.62655089238781        2.10003880578682
H           -2.32062483662860       -1.63024503693126        0.67772713106876
35
 energy: -43.878205345509 gnorm: 0.003029794273 xtb: 6.7.1 (edcfbbe)
C            2.84399296985676        0.94581137657622       -0.66988022302752
C            1.68222992277072        1.21295504768637        0.27757128267736
C            1.01679877157153       -0.10134853224761        0.78629431186559
C            2.00776034669071       -0.83051727003750        1.63145040221183
C            2.48715903142764       -2.05833896615794        1.31993235740951
C            2.01482298081024       -2.75068905818159        0.19439022744915
C            0.99206870984694       -2.18712736254237       -0.57303722113245
C            0.46444515647558       -0.95378839620102       -0.31653670873294
C           -0.73021766946439       -0.49156181102330       -1.12084023903336
C           -0.32258979072116        0.30185866699174       -2.36992249315358
C           -1.74632027194535        0.21139680892067       -0.25063028973927
C           -1.99107590457928        1.57665712104984       -0.29493400996102
C           -2.95956289200078        2.14679911336248        0.51521847103957
C           -3.69859385008761        1.36312754485007        1.38246083834765
C           -3.45587972876579        0.00046268737738        1.44337812735211
C           -2.48841911950988       -0.56543265321452        0.63588970990420
H            3.61713805937635        0.36898099552964       -0.16717842401774
H            2.51298787772796        0.38101471270544       -1.53767494798968
H            3.27774236607788        1.88496644277158       -1.00974656817588
H            2.04544961272943        1.76153093367662        1.14931348226976
H            0.92922680362405        1.83218289284811       -0.20832528038684
H            0.18063895136785        0.23669477953824        1.42315928251128
H            2.37085165068259       -0.30078219776063        2.50008759232195
H            3.23320916839233       -2.52320058558523        1.95049899177560
H            2.39825030803283       -3.72848870341369       -0.04812970017657
H            0.57948999945796       -2.77004027443432       -1.38824962028800
H           -1.22162327813857       -1.40185776996580       -1.48960908057636
H            0.20628397370569        1.21593972927987       -2.12235122630639
H            0.33212518937854       -0.31032936299480       -2.98627823129237
H           -1.20792315478059        0.55488560512063       -2.94989424678064
H           -1.43829527504636        2.21139109951409       -0.97013444664512
H           -3.14088578699584        3.21066947631914        0.46088866164001
H           -4.46154646611544        1.80835148806161        2.00344175047464
H           -4.02821418967140       -0.62298018680027        2.11479548489202
H           -2.30172447218056       -1.62949339161891        0.68448198327373
35
 energy: -43.878283222124 gnorm: 0.002598458031 xtb: 6.7.1 (edcfbbe)
C            2.83327998597514        0.93880575856815       -0.66442024608460
C            1.67153998921145        1.21177156216652        0.28030401118348
C            1.00674843744334       -0.10345334496681        0.78908489910067
C            1.99945619621936       -0.82978527191905        1.63530271637640
C            2.48752807315224       -2.05277799541178        1.32000420883987
C            2.02199048165840       -2.74381124350225        0.19017434958939
C            0.99698865647918       -2.18481712367192       -0.57850116099927
C            0.46190142493571       -0.95559213523645       -0.31869111416825
C           -0.73111893064767       -0.49298308175096       -1.12601865571151
C           -0.32195413555852        0.29871682926132       -2.37597735522257
C           -1.74543292192430        0.21172561419262       -0.25490206922417
C           -1.98943466209575        1.57720537656695       -0.30018815153287
C           -2.95329243441762        2.14899632416476        0.51487385722982
C           -3.68766494246767        1.36647165796403        1.38713404726002
C           -3.44474253909599        0.00387175728486        1.45014249441191
C           -2.48187295518527       -0.56372530063919        0.63814278631938
H            3.60323174976537        0.36109630343361       -0.15817621827487
H            2.50082125381810        0.37116670845307       -1.52981532120503
H            3.27137113179245        1.87398226306279       -1.00836757401623
H            2.03285905034456        1.76279855135847        1.15137805269007
H            0.91851926629075        1.82944389914778       -0.20763147258537
H            0.16842245948790        0.22953051895344        1.42413529347373
H            2.35751184712583       -0.30159577372897        2.50697641756532
H            3.23408752262153       -2.51460801722444        1.95125813042291
H            2.41209868720399       -3.71862524666903       -0.05379813905121
H            0.59149435752355       -2.76442379355824       -1.39894846423402
H           -1.22437380239058       -1.40241479589229       -1.49517643375145
H            0.21382493442217        1.20945644748885       -2.13004491255697
H            0.32675128007416       -0.31675460674364       -2.99589305519158
H           -1.20727902521615        0.55827690473351       -2.95345175660696
H           -1.43951281849315        2.21057628290054       -0.97927216028049
H           -3.13294936512700        3.21333678139823        0.46164267775926
H           -4.44661673732484        1.81306928187379        2.01223997064149
H           -4.01160888201580       -0.61779218503458        2.12813678354066
H           -2.29277263358409       -1.62743890702325        0.68824356429337
35
 energy: -43.878379090446 gnorm: 0.002198190267 xtb: 6.7.1 (edcfbbe)
C            2.82189077589567        0.93235889082632       -0.65766650997982
C            1.65874837042396        1.20847097268002        0.28336538780644
C            0.99515077450277       -0.10660493995136        0.79136599364334
C            1.98600263586635       -0.83132234826901        1.64176228412271
C            2.48580005617586       -2.04788495890951        1.32178004292872
C            2.03305293949780       -2.73425541574780        0.18365648528582
C            1.00509853242699       -2.18118963421056       -0.58637751158822
C            0.45925307567346       -0.95814654350586       -0.32247912493019
C           -0.73306982532445       -0.49501343670776       -1.13240808841065
C           -0.32195467594100        0.29345017561119       -2.38387935901617
C           -1.74541765857618        0.21261469900410       -0.26064229403008
C           -1.99030937403259        1.57772237811646       -0.30892319951203
C           -2.94611712582535        2.15240194020071        0.51405415167624
C           -3.67156715505393        1.37264415710654        1.39611146371620
C           -3.42906107354264        0.01018423105959        1.46078596634775
C           -2.47417452215222       -0.56013112133145        0.64122146196959
H            3.58974056362172        0.35533532841076       -0.14796292677169
H            2.49015681001267        0.36189717585067       -1.52135677228692
H            3.26228173317046        1.86473402038425       -1.00453048354952
H            2.01713694531248        1.76250519768422        1.15404893154693
H            0.90568514503175        1.82402978258869       -0.20753837411742
H            0.15315184099931        0.22004721009591        1.42338893811038
H            2.33334810019134       -0.30590961102060        2.51976064145907
H            3.23233913058719       -2.50813628863364        1.95355867326183
H            2.43630168190802       -3.70258041416347       -0.06569666822588
H            0.60892161448680       -2.76089369110688       -1.41026442602623
H           -1.22815566108190       -1.40412679770796       -1.50124760682277
H            0.22355762437894        1.19966989082558       -2.14181102177520
H            0.31801699169516       -0.32798567833217       -3.00749458425223
H           -1.20718586333007        0.56101163522991       -2.95827637235455
H           -1.44653385069931        2.20882901567649       -0.99526215349846
H           -3.12542999925070        3.21686534955801        0.46048417904422
H           -4.42377342749566        1.82152377031378        2.02820036660057
H           -3.98900557163102       -0.60886101819654        2.14717198981518
H           -2.28407955792066       -1.62355392342804        0.69300051981349
35
 energy: -43.878479680503 gnorm: 0.002244635355 xtb: 6.7.1 (edcfbbe)
C            2.80933842090181        0.92579485141828       -0.64866560400366
C            1.64282882423427        1.20326232572582        0.28757582476485
C            0.97974560500311       -0.11105624278089        0.79331028852046
C            1.96575741207684       -0.83458598885626        1.65038955252940
C            2.48254842144805       -2.04213764314482        1.32314662505694
C            2.04886921791629       -2.72087340995074        0.17298038866738
C            1.01696726569215       -2.17548143413741       -0.59781026556309
C            0.45529671192487       -0.96154923833451       -0.32742560557823
C           -0.73665734480302       -0.49921153637004       -1.13988169505492
C           -0.32345707045691        0.28479060018661       -2.39341584510027
C           -1.74571130384680        0.21299079988929       -0.26767866673997
C           -1.99274408818850        1.57725108665555       -0.32205442205549
C           -2.93681785622366        2.15676814405454        0.51132040567664
C           -3.64865141649726        1.38241610551551        1.40920103664950
C           -3.40717895131350        0.02004131167661        1.47639797025701
C           -2.46419551075323       -0.55490076349520        0.64643524463676
H            3.57571115507002        0.35070989735334       -0.13478806093890
H            2.48079024340963        0.35199427761416       -1.51129881934547
H            3.25035166382453        1.85678547433989       -0.99738881736597
H            1.99723579979340        1.76033043340541        1.15823412605022
H            0.89030950727504        1.81628195313067       -0.20769221244232
H            0.13228433815947        0.21048338252777        1.42003150973743
H            2.29469863089397       -0.31432318182046        2.53907289871724
H            3.22616769733540       -2.50284824693955        1.95762240770286
H            2.47091095686264       -3.67926973285140       -0.08549286059096
H            0.63494399675459       -2.75595816492269       -1.42790501910961
H           -1.23325964328058       -1.40876291766643       -1.50658006817352
H            0.23358943877070        1.18513675261379       -2.15529769545878
H            0.30610669773188       -0.34401996973119       -3.02047961020425
H           -1.20841321018603        0.56189020781227       -2.96391557602643
H           -1.45896923418720        2.20433948672861       -1.02011889708172
H           -3.11697800338876        3.22091721133159        0.45482215058696
H           -4.38968529185869        1.83538988025504        2.05199782708935
H           -3.95780273183766       -0.59486338504802        2.17412928363476
H           -2.27413034825549       -1.61803232618424        0.70112220055642
35
 energy: -43.878553685341 gnorm: 0.002138601500 xtb: 6.7.1 (edcfbbe)
C            2.80109138540268        0.92290433862511       -0.63992634611784
C            1.62993107907325        1.19851371864150        0.29158763115046
C            0.96592481613853       -0.11558804181741        0.79382668917793
C            1.94528277026922       -0.83925871447141        1.65793743301082
C            2.47736883956540       -2.03841195635461        1.32387508759994
C            2.06319768368116       -2.70853281692943        0.16152185578057
C            1.02936302923977       -2.16886348863101       -0.61083997019136
C            0.45193916661796       -0.96423923735347       -0.33291171899311
C           -0.74115684349363       -0.50514266553674       -1.14581360529241
C           -0.32689137307760        0.27487507555037       -2.40138072433578
C           -1.74653503191428        0.21170750217308       -0.27345190381282
C           -1.99574996271527        1.57514378918909       -0.33516485394757
C           -2.92839409408851        2.16030799772843        0.50699631291415
C           -3.62684594132774        1.39261186733008        1.42115151729190
C           -3.38654663246531        0.03023609152982        1.49205065583253
C           -2.45532189910701       -0.55032294803017        0.65292702649800
H            3.56716444123169        0.35053252375731       -0.12253676873029
H            2.47757841972144        0.34701223546859       -1.50304131529562
H            3.24050154987148        1.85487333182295       -0.98794169710690
H            1.98021320965894        1.75661118424456        1.16328564262521
H            0.87873033273561        1.81007149320992       -0.20766357331339
H            0.11351528342005        0.20465361912891        1.41463876590495
H            2.25632258006232       -0.32491860291225        2.55679639852785
H            3.21780202307847       -2.50029606476391        1.96160459490086
H            2.50129821906820       -3.65760893382480       -0.10527349659446
H            0.65864721283593       -2.75008760568517       -1.44582126442106
H           -1.23840054608338       -1.41585827225844       -1.50878702004358
H            0.23785410318856        1.17076896821782       -2.16524777754588
H            0.29568058081037       -0.35894892182943       -3.02996891466207
H           -1.21145441435232        0.55833530619285       -2.96904251557398
H           -1.47171393482084        2.19751619397648       -1.04483582456721
H           -3.10977710659357        3.22392088993761        0.44565985466174
H           -4.35641043273155        1.85049263969291        2.07364998231852
H           -3.92842626378666       -0.58003489106069        2.20058087598843
H           -2.26598224911168       -1.61327560495724        0.71145896636231
35
 energy: -43.878612924954 gnorm: 0.001686365967 xtb: 6.7.1 (edcfbbe)
C            2.79803827596216        0.92444989330797       -0.63174265909198
C            1.62155746757012        1.19511540474412        0.29533235154082
C            0.95522019220077       -0.11969964403144        0.79288649629797
C            1.92802150071937       -0.84462511111714        1.66273953188455
C            2.47209882374394       -2.03676528950151        1.32307294428968
C            2.07433904939383       -2.69878697188879        0.15062255506505
C            1.03949430053043       -2.16294132925763       -0.62287642850111
C            0.44904499782886       -0.96652690446767       -0.33785465123357
C           -0.74621329895244       -0.51210591470939       -1.14975524331988
C           -0.33216353134945        0.26428668096096       -2.40759785479038
C           -1.74814966223867        0.20890472984158       -0.27752246190258
C           -1.99904620367077        1.57167385066761       -0.34677141043797
C           -2.92175483141797        2.16283439778844        0.50170558980349
C           -3.60869647896218        1.40225224599673        1.43036843905142
C           -3.36938840937870        0.03990713452521        1.50623324969168
C           -2.44856935066483       -0.54681000131804        0.66014422456634
H            3.56480955932398        0.35512654574041       -0.11187275823712
H            2.48093670188787        0.34819938552713       -1.49701174308660
H            3.23422163830235        1.85941712169824       -0.97647889182583
H            1.96744909994668        1.75214462589635        1.16933881424921
H            0.87208806396141        1.80633629606766       -0.20699723381121
H            0.09927741808013        0.20201153106284        1.40826497053390
H            2.22357046739690       -0.33684546976837        2.57033220312262
H            3.20777216825314       -2.50098743559652        1.96508974145290
H            2.52377964167532       -3.64039360188850       -0.12240959631698
H            0.67800335497550       -2.74302702551665       -1.46331533073342
H           -1.24362282685522       -1.42438512907378       -1.50798940677871
H            0.23561205171438        1.15810278244774       -2.17198791035275
H            0.28774288931197       -0.37204578021830       -3.03557889544612
H           -1.21633541575194        0.54980316592965       -2.97424832244988
H           -1.48328893730438        2.18903083020661       -1.06660141450236
H           -3.10435229998422        3.22583349566767        0.43434212496026
H           -4.32823628082404        1.86534074495063        2.08993803822180
H           -3.90352327630724       -0.56551795545816        2.22453736947432
H           -2.25993685911511       -1.60960729921418        0.72356356861342
35
 energy: -43.878670135083 gnorm: 0.001334910422 xtb: 6.7.1 (edcfbbe)
C            2.79901703396678        0.93186251392418       -0.61982788554677
C            1.61453215332831        1.19251734329293        0.30080221543739
C            0.94417345944860       -0.12498897275975        0.79053727875565
C            1.90892492041236       -0.85300812932795        1.66597061135583
C            2.46500047249191       -2.03757255846960        1.31995799660234
C            2.08600547747700       -2.68922730014228        0.13580218760029
C            1.05152031281199       -2.15555888255791       -0.63947532615064
C            0.44645899835244       -0.96897893541855       -0.34471277179195
C           -0.75372290625653       -0.52272743809577       -1.15298007613692
C           -0.34180255474146        0.24847095662686       -2.41471862058390
C           -1.75084160233602        0.20369216889454       -0.28066916845276
C           -2.00344776620620        1.56567461136838       -0.36091655340283
C           -2.91504011066697        2.16559115659973        0.49278030342610
C           -3.58886570811101        1.41522133999862        1.43887664710757
C           -3.35002786755875        0.05318394502963        1.52412981994420
C           -2.44108135520251       -0.54267736818659        0.67183376567416
H            3.56729127693902        0.36650779571327       -0.09759562202965
H            2.49210088507845        0.35752655223375       -1.49014752803237
H            3.22987221339376        1.87267761344372       -0.95710519730183
H            1.95324086323823        1.74565554875934        1.17983958500920
H            0.86758521521168        1.80429310071106       -0.20473453015548
H            0.08525166727496        0.20020769515228        1.39965264475111
H            2.18832487204720       -0.35444160791189        2.58286378070990
H            3.19503226039130       -2.50490589703414        1.96691538490150