      -----------------------------------------------------------      
     |                   =====================                   |     
     |                           x T B                           |     
     |                   =====================                   |     
     |                         S. Grimme                         |     
     |          Mulliken Center for Theoretical Chemistry        |     
     |                    University of Bonn                     |     
      -----------------------------------------------------------      

   * xtb version 6.7.1 (edcfbbe) compiled by 'conda@c0858423619e' on 2025-09-04

   xtb is free software: you can redistribute it and/or modify it under
   the terms of the GNU Lesser General Public License as published by
   the Free Software Foundation, either version 3 of the License, or
   (at your option) any later version.
   
   xtb is distributed in the hope that it will be useful,
   but WITHOUT ANY WARRANTY; without even the implied warranty of
   MERCHANTABILITY or FITNESS FOR A PARTICULAR PURPOSE.  See the
   GNU Lesser General Public License for more details.
   
   Cite this work as:
   * C. Bannwarth, E. Caldeweyher, S. Ehlert, A. Hansen, P. Pracht,
     J. Seibert, S. Spicher, S. Grimme, WIREs Comput. Mol. Sci., 2020, 11,
     e01493. DOI: 10.1002/wcms.1493
   
   for GFN2-xTB:
   * C. Bannwarth, S. Ehlert and S. Grimme., J. Chem. Theory Comput., 2019,
     15, 1652-1671. DOI: 10.1021/acs.jctc.8b01176
   for GFN1-xTB:
   * S. Grimme, C. Bannwarth, P. Shushkov, J. Chem. Theory Comput., 2017,
     13, 1989-2009. DOI: 10.1021/acs.jctc.7b00118
   for GFN0-xTB:
   * P. Pracht, E. Caldeweyher, S. Ehlert, S. Grimme, ChemRxiv, 2019, preprint.
     DOI: 10.26434/chemrxiv.8326202.v1
   for GFN-FF:
   * S. Spicher and S. Grimme, Angew. Chem. Int. Ed., 2020, 59, 15665-15673.
     DOI: 10.1002/anie.202004239
   
   for ALPB and GBSA implicit solvation:
   * S. Ehlert, M. Stahn, S. Spicher, S. Grimme, J. Chem. Theory Comput.,
     2021, 17, 4250-4261. DOI: 10.1021/acs.jctc.1c00471
   
   for ddCOSMO and CPCM-X implicit solvation:
   * M. Stahn, S. Ehlert, S. Grimme, J. Phys. Chem. A,
     2023, XX, XXXX-XXXX. DOI: 10.1021/acs.jpca.3c04382
   
   for DFT-D4:
   * E. Caldeweyher, C. Bannwarth and S. Grimme, J. Chem. Phys., 2017,
     147, 034112. DOI: 10.1063/1.4993215
   * E. Caldeweyher, S. Ehlert, A. Hansen, H. Neugebauer, S. Spicher,
     C. Bannwarth and S. Grimme, J. Chem. Phys., 2019, 150, 154122.
     DOI: 10.1063/1.5090222
   * E. Caldeweyher, J.-M. Mewes, S. Ehlert and S. Grimme, Phys. Chem. Chem. Phys.
     2020, 22, 8499-8512. DOI: 10.1039/D0CP00502A
   
   for sTDA-xTB:
   * S. Grimme and C. Bannwarth, J. Chem. Phys., 2016, 145, 054103.
     DOI: 10.1063/1.4959605
   
   in the mass-spec context:
   * V. Asgeirsson, C. Bauer and S. Grimme, Chem. Sci., 2017, 8, 4879.
     DOI: 10.1039/c7sc00601b
   * J. Koopman and S. Grimme, ACS Omega 2019, 4, 12, 15120-15133.
     DOI: 10.1021/acsomega.9b02011
   
   for metadynamics refer to:
   * S. Grimme, J. Chem. Theory Comput., 2019, 155, 2847-2862
     DOI: 10.1021/acs.jctc.9b00143
   
   for SPH calculations refer to:
   * S. Spicher and S. Grimme, J. Chem. Theory Comput., 2021, 17, 1701-1714
     DOI: 10.1021/acs.jctc.0c01306
   
   for ONIOM refer to:
   * C. Plett, A. Katbashev, S. Ehlert, S. Grimme, M. Bursch,
     Phys. Chem. Chem. Phys., 2023, 25, 17860-17868. DOI: 10.1039/D3CP02178E
   
   for DIPRO refer to:
   * J. Kohn, N. Gildemeister, S. Grimme, D. Fazzi, A. Hansen,
     J. Chem. Phys., 2023, just accepted.
   
   for PTB refer to:
   * S. Grimme, M. Mueller, A. Hansen, J. Chem. Phys., 2023, 158, 124111.
     DOI: 10.1063/5.0137838
   
   with help from (in alphabetical order)
   P. Atkinson, C. Bannwarth, F. Bohle, G. Brandenburg, E. Caldeweyher
   M. Checinski, S. Dohm, S. Ehlert, S. Ehrlich, I. Gerasimov, C. Hölzer
   A. Katbashev, J. Kohn, J. Koopman, C. Lavigne, S. Lehtola, F. März, M. Müller,
   F. Musil, H. Neugebauer, J. Pisarek, C. Plett, P. Pracht, F. Pultar,
   J. Seibert, P. Shushkov, S. Spicher, M. Stahn, M. Steiner, T. Strunk,
   J. Stückrath, T. Rose, and J. Unsleber
   
 * started run on 2025/09/15 at 14:52:51.287     
   ID    Z sym.   atoms
    1    6 C      1-16
    2    1 H      17-35

           -------------------------------------------------
          |                Calculation Setup                |
           -------------------------------------------------

          program call               : /home/paufv/miniforge3/envs/htvs/bin/xtb gfn_opt.xyz --opt normal --parallel 4 --chrg 0 --uhf 0 --gfn2 --input xtb.inp
          coordinate file            : gfn_opt.xyz
          omp threads                :                     4

########################################################################
[WARNING] Please study the warnings concerning your input carefully
-3- set_opt: the key 'uhf' is not recognized by opt
-2- set_opt: the key 'charge' is not recognized by opt
-1- set_opt: the key 'method' is not recognized by opt
########################################################################

           -------------------------------------------------
          |                 G F N 2 - x T B                 |
           -------------------------------------------------

        Reference                      10.1021/acs.jctc.8b01176
      * Hamiltonian:
        H0-scaling (s, p, d)           1.850000    2.230000    2.230000
        zeta-weighting                 0.500000
      * Dispersion:
        s8                             2.700000
        a1                             0.520000
        a2                             5.000000
        s9                             5.000000
      * Repulsion:
        kExp                           1.500000    1.000000
        rExp                           1.000000
      * Coulomb:
        alpha                          2.000000
        third order                    shell-resolved
        anisotropic                    true
        a3                             3.000000
        a5                             4.000000
        cn-shift                       1.200000
        cn-exp                         4.000000
        max-rad                        5.000000

q/qsh data taken from xtbrestart
CAMM data taken from xtbrestart

          ...................................................
          :                      SETUP                      :
          :.................................................:
          :  # basis functions                  83          :
          :  # atomic orbitals                  83          :
          :  # shells                           51          :
          :  # electrons                        83          :
          :  max. iterations                   250          :
          :  Hamiltonian                  GFN2-xTB          :
          :  restarted?                       true          :
          :  GBSA solvation                  false          :
          :  PC potential                    false          :
          :  electronic temp.          300.0000000     K    :
          :  accuracy                    1.0000000          :
          :  -> integral cutoff          0.2500000E+02      :
          :  -> integral neglect         0.1000000E-07      :
          :  -> SCF convergence          0.1000000E-05 Eh   :
          :  -> wf. convergence          0.1000000E-03 e    :
          :  Broyden damping             0.4000000          :
          :  net charge                          0          :
          :  unpaired electrons                  0          :
          ...................................................

 iter      E             dE          RMSdq      gap      omega  full diag
   1    -44.5959389 -0.445959E+02  0.468E+00    2.33       0.0  T
   2    -44.6015848 -0.564581E-02  0.275E+00    2.22       1.0  T
   3    -44.5899717  0.116131E-01  0.625E-01    2.15       1.0  T
   4    -44.6037347 -0.137631E-01  0.154E-01    2.16       1.0  T
   5    -44.6040179 -0.283141E-03  0.855E-02    2.13       1.0  T
   6    -44.6040935 -0.756644E-04  0.346E-02    2.15       1.0  T
   7    -44.6041129 -0.194009E-04  0.990E-03    2.15       1.7  T
   8    -44.6041145 -0.151888E-05  0.488E-03    2.15       3.5  T
   9    -44.6041149 -0.426541E-06  0.178E-03    2.15       9.5  T
  10    -44.6041149 -0.213340E-07  0.101E-03    2.15      16.8  T
  11    -44.6041149 -0.224960E-07  0.277E-04    2.15      61.1  T
  12    -44.6041149 -0.322373E-09  0.135E-04    2.15     125.1  T

   *** convergence criteria satisfied after 12 iterations ***

         #    Occupation            Energy/Eh            Energy/eV
      -------------------------------------------------------------
         1        2.0000           -0.6390525             -17.3895
       ...           ...                  ...                  ...
        36        2.0000           -0.4160320             -11.3208
        37        2.0000           -0.4108331             -11.1793
        38        2.0000           -0.4041330             -10.9970
        39        2.0000           -0.3987620             -10.8509
        40        2.0000           -0.3910924             -10.6422
        41        2.0000           -0.3891688             -10.5898
        42        1.0000           -0.3015011              -8.2043 (HOMO)
        43                         -0.2223586              -6.0507 (LUMO)
        44                         -0.2212448              -6.0204
        45                         -0.1998547              -5.4383
        46                         -0.1375046              -3.7417
        47                         -0.0969383              -2.6378
       ...                                ...                  ...
        83                          0.6325783              17.2133
      -------------------------------------------------------------
                  HL-Gap            0.0791425 Eh            2.1536 eV
             Fermi-level           -0.3036324 Eh           -8.2623 eV

 SCC (total)                   0 d,  0 h,  0 min,  0.024 sec
 SCC setup                      ...        0 min,  0.000 sec (  0.391%)
 Dispersion                     ...        0 min,  0.000 sec (  1.005%)
 classical contributions        ...        0 min,  0.000 sec (  0.175%)
 integral evaluation            ...        0 min,  0.001 sec (  5.254%)
 iterations                     ...        0 min,  0.019 sec ( 79.054%)
 molecular gradient             ...        0 min,  0.003 sec ( 13.154%)
 printout                       ...        0 min,  0.000 sec (  0.928%)

         :::::::::::::::::::::::::::::::::::::::::::::::::::::
         ::                     SUMMARY                     ::
         :::::::::::::::::::::::::::::::::::::::::::::::::::::
         :: total energy             -43.867055905297 Eh    ::
         :: gradient norm              0.072236679909 Eh/a0 ::
         :: HOMO-LUMO gap              2.153576651529 eV    ::
         ::.................................................::
         :: SCC energy               -44.603492542692 Eh    ::
         :: -> isotropic ES            0.004109671480 Eh    ::
         :: -> anisotropic ES          0.009624680106 Eh    ::
         :: -> anisotropic XC          0.029939338772 Eh    ::
         :: -> dispersion             -0.035977216128 Eh    ::
         :: repulsion energy           0.736436637395 Eh    ::
         :: add. restraining           0.000000000000 Eh    ::
         :: total charge               0.000000000000 e     ::
         :::::::::::::::::::::::::::::::::::::::::::::::::::::

      ----------------------------------------------------------- 
     |                   =====================                   |
     |                        A N C O P T                        |
     |                   =====================                   |
     |               Approximate Normal Coordinate               |
     |                Rational Function Optimizer                |
      ----------------------------------------------------------- 
      ----------------------------------------------------------- 
     |                   =====================                   |
     |                        A N C O P T                        |
     |                   =====================                   |
     |               Approximate Normal Coordinate               |
     |                Rational Function Optimizer                |
      ----------------------------------------------------------- 

          ...................................................
          :                      SETUP                      :
          :.................................................:
          :   optimization level            normal          :
          :   max. optcycles                   200          :
          :   ANC micro-cycles                  20          :
          :   degrees of freedom                99          :
          :.................................................:
          :   RF solver                   davidson          :
          :   write xtbopt.log                true          :
          :   linear?                        false          :
          :   energy convergence         0.5000000E-05 Eh   :
          :   grad. convergence          0.1000000E-02 Eh/α :
          :   maxmium RF displ.          1.0000000          :
          :   Hlow (freq-cutoff)         0.1000000E-01      :
          :   Hmax (freq-cutoff)         5.0000000          :
          :   S6 in model hess.         20.0000000          :
          ...................................................

generating ANC from exact Hessian ...
Using Lindh-Hessian (1995)
 Shifting diagonal of input Hessian by    9.5891116588796618E-003
 Lowest  eigenvalues of input Hessian
    0.000000    0.000000    0.000000    0.000000    0.000000    0.000000
    0.010000    0.010400    0.010963    0.011715    0.011980    0.013165
    0.014153    0.015424    0.015956    0.017416    0.018093    0.018442
 Highest eigenvalues
    1.687535    1.821951    1.825264    1.895762    1.927654    1.938519


........................................................................
.............................. CYCLE    1 ..............................
........................................................................

 iter      E             dE          RMSdq      gap      omega  full diag
   1    -44.6041149 -0.446041E+02  0.453E-05    2.15       0.0  T
   2    -44.6041149 -0.161933E-10  0.289E-05    2.15     584.8  T
   3    -44.6041149 -0.128750E-10  0.171E-05    2.15     991.0  T
     SCC iter.                  ...        0 min,  0.003 sec
     gradient                   ...        0 min,  0.003 sec
 * total energy  :   -43.8670559 Eh     change       -0.1557652E-09 Eh
   gradient norm :     0.0722369 Eh/α   predicted     0.0000000E+00 (-100.00%)
   displ. norm   :     0.3444927 α      lambda       -0.1249440E-01
   maximum displ.:     0.1524934 α      in ANC's #16, #14, #11, ...

........................................................................
.............................. CYCLE    2 ..............................
........................................................................

 iter      E             dE          RMSdq      gap      omega  full diag
   1    -44.6441027 -0.446441E+02  0.228E-01    2.19       0.0  T
   2    -44.6441208 -0.180638E-04  0.136E-01    2.19       1.0  T
   3    -44.6440569  0.639260E-04  0.449E-02    2.16       1.0  T
   4    -44.6441302 -0.733104E-04  0.779E-03    2.17       2.2  T
   5    -44.6441315 -0.137578E-05  0.323E-03    2.17       5.2  T
   6    -44.6441316 -0.802389E-07  0.128E-03    2.17      13.3  T
   7    -44.6441316 -0.119509E-07  0.523E-04    2.17      32.3  T
   8    -44.6441316 -0.680227E-08  0.173E-04    2.17      97.5  T
     SCC iter.                  ...        0 min,  0.007 sec
     gradient                   ...        0 min,  0.003 sec
 * total energy  :   -43.8757004 Eh     change       -0.8644496E-02 Eh
   gradient norm :     0.0322522 Eh/α   predicted    -0.6990558E-02 ( -19.13%)
   displ. norm   :     0.3255085 α      lambda       -0.4091335E-02
   maximum displ.:     0.1661020 α      in ANC's #16, #14, #11, ...

........................................................................
.............................. CYCLE    3 ..............................
........................................................................

 iter      E             dE          RMSdq      gap      omega  full diag
   1    -44.6638181 -0.446638E+02  0.164E-01    2.17       0.0  T
   2    -44.6638269 -0.879060E-05  0.990E-02    2.17       1.0  T
   3    -44.6637713  0.555148E-04  0.402E-02    2.16       1.0  T
   4    -44.6638337 -0.623228E-04  0.640E-03    2.17       2.6  T
   5    -44.6638348 -0.113364E-05  0.222E-03    2.17       7.6  T
   6    -44.6638348 -0.295906E-07  0.931E-04    2.17      18.2  T
   7    -44.6638348 -0.146831E-07  0.302E-04    2.17      56.0  T
     SCC iter.                  ...        0 min,  0.006 sec
     gradient                   ...        0 min,  0.003 sec
 * total energy  :   -43.8780901 Eh     change       -0.2389732E-02 Eh
   gradient norm :     0.0088455 Eh/α   predicted    -0.2263874E-02 (  -5.27%)
   displ. norm   :     0.1878789 α      lambda       -0.6287643E-03
   maximum displ.:     0.0751776 α      in ANC's #16, #14, #11, ...

........................................................................
.............................. CYCLE    4 ..............................
........................................................................

 iter      E             dE          RMSdq      gap      omega  full diag
   1    -44.6637893 -0.446638E+02  0.793E-02    2.15       0.0  T
   2    -44.6637902 -0.911977E-06  0.480E-02    2.15       1.0  T
   3    -44.6637703  0.199847E-04  0.223E-02    2.15       1.0  T
   4    -44.6637925 -0.222004E-04  0.176E-03    2.15       9.6  T
   5    -44.6637925 -0.566181E-07  0.845E-04    2.15      20.0  T
   6    -44.6637925 -0.901321E-08  0.353E-04    2.15      47.9  T
     SCC iter.                  ...        0 min,  0.005 sec
     gradient                   ...        0 min,  0.003 sec
 * total energy  :   -43.8785154 Eh     change       -0.4252636E-03 Eh
   gradient norm :     0.0059245 Eh/α   predicted    -0.3254861E-03 ( -23.46%)
   displ. norm   :     0.1700442 α      lambda       -0.2806496E-03
   maximum displ.:     0.0861120 α      in ANC's #2, #4, #9, ...

........................................................................
.............................. CYCLE    5 ..............................
........................................................................

 iter      E             dE          RMSdq      gap      omega  full diag
   1    -44.6632084 -0.446632E+02  0.559E-02    2.14       0.0  T
   2    -44.6632089 -0.500644E-06  0.330E-02    2.14       1.0  T
   3    -44.6632039  0.496004E-05  0.117E-02    2.14       1.4  T
   4    -44.6632094 -0.548429E-05  0.139E-03    2.14      12.1  T
   5    -44.6632094 -0.504515E-07  0.588E-04    2.14      28.8  T
   6    -44.6632094 -0.313629E-08  0.257E-04    2.14      65.7  T
     SCC iter.                  ...        0 min,  0.005 sec
     gradient                   ...        0 min,  0.003 sec
 * total energy  :   -43.8786912 Eh     change       -0.1758424E-03 Eh
   gradient norm :     0.0029610 Eh/α   predicted    -0.1443871E-03 ( -17.89%)
   displ. norm   :     0.1053414 α      lambda       -0.7924191E-04
   maximum displ.:     0.0641012 α      in ANC's #2, #3, #4, ...

........................................................................
.............................. CYCLE    6 ..............................
........................................................................

 iter      E             dE          RMSdq      gap      omega  full diag
   1    -44.6631640 -0.446632E+02  0.267E-02    2.14       0.0  T
   2    -44.6631641 -0.132911E-06  0.157E-02    2.14       1.1  T
   3    -44.6631639  0.155000E-06  0.225E-03    2.14       7.5  T
   4    -44.6631641 -0.191010E-06  0.521E-04    2.14      32.4  T
   5    -44.6631641 -0.552971E-08  0.307E-04    2.14      55.1  T
     SCC iter.                  ...        0 min,  0.004 sec
     gradient                   ...        0 min,  0.003 sec
 * total energy  :   -43.8787483 Eh     change       -0.5702174E-04 Eh
   gradient norm :     0.0020056 Eh/α   predicted    -0.4007431E-04 ( -29.72%)
   displ. norm   :     0.1104241 α      lambda       -0.5720491E-04
   maximum displ.:     0.0665100 α      in ANC's #2, #3, #1, ...

........................................................................
.............................. CYCLE    7 ..............................
........................................................................

 iter      E             dE          RMSdq      gap      omega  full diag
   1    -44.6634388 -0.446634E+02  0.301E-02    2.14       0.0  T
   2    -44.6634389 -0.990142E-07  0.177E-02    2.14       1.0  T
   3    -44.6634386  0.220238E-06  0.262E-03    2.14       6.4  T
   4    -44.6634389 -0.259164E-06  0.556E-04    2.14      30.4  T
   5    -44.6634389 -0.555013E-08  0.294E-04    2.14      57.6  T
     SCC iter.                  ...        0 min,  0.004 sec
     gradient                   ...        0 min,  0.003 sec
 * total energy  :   -43.8787901 Eh     change       -0.4184116E-04 Eh
   gradient norm :     0.0019096 Eh/α   predicted    -0.2895164E-04 ( -30.81%)
   displ. norm   :     0.1579684 α      lambda       -0.3931354E-04
   maximum displ.:     0.0923671 α      in ANC's #2, #3, #1, ...

........................................................................
.............................. CYCLE    8 ..............................
........................................................................

 iter      E             dE          RMSdq      gap      omega  full diag
   1    -44.6637766 -0.446638E+02  0.466E-02    2.14       0.0  T
   2    -44.6637768 -0.188318E-06  0.273E-02    2.14       1.0  T
   3    -44.6637764  0.448902E-06  0.361E-03    2.14       4.7  T
   4    -44.6637769 -0.525177E-06  0.757E-04    2.14      22.3  T
   5    -44.6637769 -0.108393E-07  0.373E-04    2.14      45.4  T
     SCC iter.                  ...        0 min,  0.004 sec
     gradient                   ...        0 min,  0.003 sec
 * total energy  :   -43.8788274 Eh     change       -0.3733113E-04 Eh
   gradient norm :     0.0015856 Eh/α   predicted    -0.1987521E-04 ( -46.76%)
   displ. norm   :     0.1043843 α      lambda       -0.2248270E-04
   maximum displ.:     0.0590830 α      in ANC's #1, #2, #3, ...

........................................................................
.............................. CYCLE    9 ..............................
........................................................................

 iter      E             dE          RMSdq      gap      omega  full diag
   1    -44.6639449 -0.446639E+02  0.300E-02    2.14       0.0  T
   2    -44.6639450 -0.744757E-07  0.176E-02    2.14       1.0  T
   3    -44.6639446  0.448007E-06  0.359E-03    2.14       4.7  T
   4    -44.6639451 -0.496663E-06  0.510E-04    2.14      33.2  T
   5    -44.6639451 -0.580376E-08  0.230E-04    2.14      73.6  T
     SCC iter.                  ...        0 min,  0.004 sec
     gradient                   ...        0 min,  0.003 sec
 * total energy  :   -43.8788550 Eh     change       -0.2760042E-04 Eh
   gradient norm :     0.0011515 Eh/α   predicted    -0.1129822E-04 ( -59.07%)
   displ. norm   :     0.1909175 α      lambda       -0.3713309E-04
   maximum displ.:     0.1103254 α      in ANC's #1, #2, #3, ...

........................................................................
.............................. CYCLE   10 ..............................
........................................................................

 iter      E             dE          RMSdq      gap      omega  full diag
   1    -44.6636720 -0.446637E+02  0.543E-02    2.14       0.0  T
   2    -44.6636722 -0.241607E-06  0.319E-02    2.14       1.0  T
   3    -44.6636719  0.328545E-06  0.336E-03    2.14       5.0  T
   4    -44.6636723 -0.405147E-06  0.845E-04    2.14      20.0  T
   5    -44.6636723 -0.143136E-07  0.424E-04    2.14      39.9  T
     SCC iter.                  ...        0 min,  0.004 sec
     gradient                   ...        0 min,  0.003 sec
 * total energy  :   -43.8788937 Eh     change       -0.3866005E-04 Eh
   gradient norm :     0.0018480 Eh/α   predicted    -0.1886972E-04 ( -51.19%)
   displ. norm   :     0.1642857 α      lambda       -0.2230046E-04
   maximum displ.:     0.1032717 α      in ANC's #1, #2, #3, ...

........................................................................
.............................. CYCLE   11 ..............................
........................................................................

 iter      E             dE          RMSdq      gap      omega  full diag
   1    -44.6635880 -0.446636E+02  0.412E-02    2.15       0.0  T
   2    -44.6635881 -0.122774E-06  0.242E-02    2.15       1.0  T
   3    -44.6635877  0.390062E-06  0.356E-03    2.15       4.7  T
   4    -44.6635882 -0.454070E-06  0.663E-04    2.15      25.5  T
   5    -44.6635882 -0.746002E-08  0.350E-04    2.15      48.3  T
     SCC iter.                  ...        0 min,  0.004 sec
     gradient                   ...        0 min,  0.003 sec
 * total energy  :   -43.8789148 Eh     change       -0.2112525E-04 Eh
   gradient norm :     0.0011126 Eh/α   predicted    -0.1128458E-04 ( -46.58%)
   displ. norm   :     0.0717054 α      lambda       -0.9282127E-05
   maximum displ.:     0.0552197 α      in ANC's #1, #2, #3, ...

........................................................................
.............................. CYCLE   12 ..............................
........................................................................

 iter      E             dE          RMSdq      gap      omega  full diag
   1    -44.6639514 -0.446640E+02  0.157E-02    2.15       0.0  T
   2    -44.6639514 -0.198675E-07  0.919E-03    2.15       1.8  T
   3    -44.6639514  0.373744E-07  0.106E-03    2.15      15.9  T
   4    -44.6639515 -0.458673E-07  0.247E-04    2.15      68.3  T
   5    -44.6639515 -0.100313E-08  0.124E-04    2.15     136.0  T
     SCC iter.                  ...        0 min,  0.004 sec
     gradient                   ...        0 min,  0.003 sec
 * total energy  :   -43.8789254 Eh     change       -0.1054742E-04 Eh
   gradient norm :     0.0006171 Eh/α   predicted    -0.4653480E-05 ( -55.88%)
   displ. norm   :     0.0450199 α      lambda       -0.6914356E-05
   maximum displ.:     0.0380653 α      in ANC's #1, #6, #11, ...

........................................................................
.............................. CYCLE   13 ..............................
........................................................................

 iter      E             dE          RMSdq      gap      omega  full diag
   1    -44.6641026 -0.446641E+02  0.943E-03    2.15       0.0  T
   2    -44.6641026 -0.928072E-08  0.555E-03    2.15       3.0  T
   3    -44.6641026  0.205096E-07  0.866E-04    2.15      19.5  T
   4    -44.6641026 -0.239261E-07  0.182E-04    2.15      92.7  T
     SCC iter.                  ...        0 min,  0.003 sec
     gradient                   ...        0 min,  0.003 sec
 * total energy  :   -43.8789337 Eh     change       -0.8374291E-05 Eh
   gradient norm :     0.0006166 Eh/α   predicted    -0.3461686E-05 ( -58.66%)
   displ. norm   :     0.0536801 α      lambda       -0.6996952E-05
   maximum displ.:     0.0384010 α      in ANC's #1, #5, #6, ...

........................................................................
.............................. CYCLE   14 ..............................
........................................................................

 iter      E             dE          RMSdq      gap      omega  full diag
   1    -44.6639265 -0.446639E+02  0.140E-02    2.15       0.0  T
   2    -44.6639265 -0.162825E-07  0.821E-03    2.14       2.1  T
   3    -44.6639264  0.391002E-07  0.120E-03    2.14      14.1  T
   4    -44.6639265 -0.472727E-07  0.203E-04    2.14      83.4  T
   5    -44.6639265 -0.378584E-09  0.120E-04    2.14     141.1  T
     SCC iter.                  ...        0 min,  0.004 sec
     gradient                   ...        0 min,  0.003 sec
 * total energy  :   -43.8789421 Eh     change       -0.8346200E-05 Eh
   gradient norm :     0.0007316 Eh/α   predicted    -0.3507555E-05 ( -57.97%)
   displ. norm   :     0.0539564 α      lambda       -0.6056085E-05
   maximum displ.:     0.0375209 α      in ANC's #1, #5, #2, ...

........................................................................
.............................. CYCLE   15 ..............................
........................................................................

 iter      E             dE          RMSdq      gap      omega  full diag
   1    -44.6639117 -0.446639E+02  0.138E-02    2.14       0.0  T
   2    -44.6639117 -0.143534E-07  0.811E-03    2.14       2.1  T
   3    -44.6639116  0.295233E-07  0.984E-04    2.14      17.2  T
   4    -44.6639117 -0.368325E-07  0.182E-04    2.14      93.0  T
     SCC iter.                  ...        0 min,  0.003 sec
     gradient                   ...        0 min,  0.003 sec
 * total energy  :   -43.8789497 Eh     change       -0.7654729E-05 Eh
   gradient norm :     0.0007623 Eh/α   predicted    -0.3034713E-05 ( -60.36%)
   displ. norm   :     0.0508896 α      lambda       -0.5646078E-05
   maximum displ.:     0.0378844 α      in ANC's #1, #5, #2, ...

........................................................................
.............................. CYCLE   16 ..............................
........................................................................

 iter      E             dE          RMSdq      gap      omega  full diag
   1    -44.6638224 -0.446638E+02  0.123E-02    2.14       0.0  T
   2    -44.6638224 -0.979201E-08  0.721E-03    2.14       2.3  T
   3    -44.6638224  0.335654E-07  0.110E-03    2.14      15.3  T
   4    -44.6638224 -0.392939E-07  0.188E-04    2.14      89.9  T
   5    -44.6638224 -0.524089E-09  0.101E-04    2.14     167.5  T
     SCC iter.                  ...        0 min,  0.004 sec
     gradient                   ...        0 min,  0.003 sec
 * total energy  :   -43.8789570 Eh     change       -0.7292477E-05 Eh
   gradient norm :     0.0004242 Eh/α   predicted    -0.2826996E-05 ( -61.23%)
   displ. norm   :     0.0453485 α      lambda       -0.5092670E-05
   maximum displ.:     0.0374432 α      in ANC's #1, #5, #2, ...

........................................................................
.............................. CYCLE   17 ..............................
........................................................................

 iter      E             dE          RMSdq      gap      omega  full diag
   1    -44.6637878 -0.446638E+02  0.102E-02    2.14       0.0  T
   2    -44.6637878 -0.894862E-08  0.598E-03    2.14       2.8  T
   3    -44.6637877  0.112699E-07  0.685E-04    2.14      24.7  T
   4    -44.6637878 -0.144646E-07  0.182E-04    2.14      93.0  T
     SCC iter.                  ...        0 min,  0.003 sec
     gradient                   ...        0 min,  0.003 sec
 * total energy  :   -43.8789635 Eh     change       -0.6482457E-05 Eh
   gradient norm :     0.0003083 Eh/α   predicted    -0.2551736E-05 ( -60.64%)
   displ. norm   :     0.0372266 α      lambda       -0.3982254E-05
   maximum displ.:     0.0337183 α      in ANC's #1, #6, #5, ...

........................................................................
.............................. CYCLE   18 ..............................
........................................................................

 iter      E             dE          RMSdq      gap      omega  full diag
   1    -44.6638409 -0.446638E+02  0.819E-03    2.14       0.0  T
   2    -44.6638409 -0.600727E-08  0.482E-03    2.14       3.5  T
   3    -44.6638409  0.158053E-07  0.721E-04    2.14      23.5  T
   4    -44.6638409 -0.186512E-07  0.139E-04    2.14     121.9  T
     SCC iter.                  ...        0 min,  0.003 sec
     gradient                   ...        0 min,  0.003 sec
 * total energy  :   -43.8789688 Eh     change       -0.5328710E-05 Eh
   gradient norm :     0.0003763 Eh/α   predicted    -0.1993642E-05 ( -62.59%)
   displ. norm   :     0.0325108 α      lambda       -0.3279001E-05
   maximum displ.:     0.0292363 α      in ANC's #1, #3, #6, ...

........................................................................
.............................. CYCLE   19 ..............................
........................................................................

 iter      E             dE          RMSdq      gap      omega  full diag
   1    -44.6638323 -0.446638E+02  0.746E-03    2.14       0.0  T
   2    -44.6638323 -0.379058E-08  0.437E-03    2.14       3.9  T
   3    -44.6638323  0.530768E-08  0.442E-04    2.14      38.3  T
   4    -44.6638323 -0.695826E-08  0.110E-04    2.14     154.2  T
     SCC iter.                  ...        0 min,  0.003 sec
     gradient                   ...        0 min,  0.003 sec
 * total energy  :   -43.8789735 Eh     change       -0.4654442E-05 Eh
   gradient norm :     0.0003921 Eh/α   predicted    -0.1641066E-05 ( -64.74%)
   displ. norm   :     0.0342990 α      lambda       -0.3413337E-05
   maximum displ.:     0.0288973 α      in ANC's #1, #3, #5, ...

   *** GEOMETRY OPTIMIZATION CONVERGED AFTER 19 ITERATIONS ***

------------------------------------------------------------------------
 total energy gain   :        -0.0119176 Eh       -7.4784 kcal/mol
 total RMSD          :         0.2416989 a0        0.1279 Å
 total power (kW/mol):        -1.6468232 (step) -170.0949 (real)
------------------------------------------------------------------------

 ANCopt (total)                0 d,  0 h,  0 min,  0.184 sec
 optimizer setup                ...        0 min,  0.000 sec (  0.039%)
 model hessian                  ...        0 min,  0.012 sec (  6.448%)
 ANC generation                 ...        0 min,  0.001 sec (  0.397%)
 coordinate transformation      ...        0 min,  0.000 sec (  0.062%)
 single point calculation       ...        0 min,  0.168 sec ( 91.592%)
 optimization log               ...        0 min,  0.001 sec (  0.672%)
 hessian update                 ...        0 min,  0.000 sec (  0.089%)
 rational function              ...        0 min,  0.001 sec (  0.462%)

================
 final structure:
================
35
 xtb: 6.7.1 (edcfbbe)
C            1.63812346622180        2.28890406019575       -0.25956738088323
C            1.18828070239049        1.17729594363484       -1.20786751623911
C            1.50098767844929       -0.20790013484750       -0.71903616099625
C            2.75792766309221       -0.55386975028543       -0.31624996718543
C            3.11414289867175       -1.87565031234625       -0.02674854325679
C            2.20144399665264       -2.90461215353645       -0.30317161988394
C            0.93661293675685       -2.62157155961955       -0.69889536511156
C            0.40294988423379       -1.22900860085645       -0.70043554121386
C           -0.48840805927998       -1.01845703610248        0.58815255576329
C           -1.43209762201139       -2.20069896164416        0.82592886218261
C           -1.29788721812263        0.24649391476470        0.52163788056663
C           -2.24254347162188        0.44699719667026       -0.48074447339081
C           -3.00346769205254        1.60048503707928       -0.51752143537534
C           -2.83889468331980        2.57501835737722        0.45259436450657
C           -1.91419111911962        2.38151473840198        1.46344925118778
C           -1.15335302412858        1.22597905876061        1.49686630387148
H            1.34784635176248        3.25753139899579       -0.66025260549717
H            1.16936363767766        2.16621232740745        0.71299038325535
H            2.71659481505879        2.28350095315453       -0.12791169876851
H            1.68824491952806        1.32308513991574       -2.17300978874824
H            0.11543262247089        1.27454099365672       -1.37971658144785
H            3.52949266710680        0.20224741907762       -0.27320166144078
H            4.11302123345193       -2.10778995943752        0.30642694429377
H            2.53322852889545       -3.93209057222304       -0.24350240041629
H            0.25936832600440       -3.41163106615831       -0.98446452331280
H           -0.25950198804384       -1.08532115119656       -1.56344594528754
H            0.20201133581367       -0.95532258796652        1.43567076795977
H           -2.03321652953325       -2.40562977275902       -0.05665810078456
H           -2.10473948619048       -1.96579342287964        1.64918498630461
H           -0.87205603827156       -3.09521119668853        1.08506600996976
H           -2.38647069447532       -0.30414599375868       -1.24450255528108
H           -3.72957893489138        1.73982821877785       -1.30562283316103
H           -3.43217922431658        3.47697518859518        0.42246710731993
H           -1.78497217271404        3.13227813752893        2.22965274174098
H           -0.44121570614564        1.07611614831258        2.29693853875979

 Bond Distances (Angstroems)
 ---------------------------
C1-C2=1.5288         C1-H17=1.0877        C1-H18=1.0866        C1-H19=1.0865        C2-C1=1.5288         C2-C3=1.5018         
C2-H20=1.0967        C2-H21=1.0909        C3-C2=1.5018         C3-C4=1.3645         C3-C8=1.4996         C4-C3=1.3645         
C4-C5=1.3992         C4-H22=1.0811        C5-C4=1.3992         C5-C6=1.4029         C5-H23=1.0783        C6-C5=1.4029         
C6-C7=1.3552         C6-H24=1.0814        C7-C6=1.3552         C7-C8=1.4913         C7-H25=1.0791        C8-C3=1.4996         
C8-C7=1.4913         C8-C9=1.5809         C8-H26=1.0974        C9-C8=1.5809         C9-C10=1.5313        C9-C11=1.5033        
C9-H27=1.0950        C10-C9=1.5313        C10-H28=1.0873       C10-H29=1.0888       C10-H30=1.0867       C11-C9=1.5033        
C11-C12=1.3919       C11-C16=1.3897       C12-C11=1.3919       C12-C13=1.3824       C12-H31=1.0809       C13-C12=1.3824       
C13-C14=1.3849       C13-H32=1.0806       C14-C13=1.3849       C14-C15=1.3836       C14-H33=1.0800       C15-C14=1.3836       
C15-C16=1.3839       C15-H34=1.0805       C16-C11=1.3897       C16-C15=1.3839       C16-H35=1.0815       H17-C1=1.0877        
H18-C1=1.0866        H19-C1=1.0865        H20-C2=1.0967        H21-C2=1.0909        H22-C4=1.0811        H23-C5=1.0783        
H24-C6=1.0814        H25-C7=1.0791        H26-C8=1.0974        H27-C9=1.0950        H28-C10=1.0873       H29-C10=1.0888       
H30-C10=1.0867       H31-C12=1.0809       H32-C13=1.0806       H33-C14=1.0800       H34-C15=1.0805       H35-C16=1.0815       
 C  H  Rav=1.0856 sigma=0.0059  Rmin=1.0783  Rmax=1.0974    19
 C  C  Rav=1.4397 sigma=0.0701  Rmin=1.3552  Rmax=1.5809    17

 selected bond angles (degree)
 --------------------
H17-C1-C2=109.91               H18-C1-C2=110.25               H18-C1-H17=108.37              H19-C1-C2=111.32               
H19-C1-H17=108.30              H19-C1-H18=108.61              C3-C2-C1=114.05                H20-C2-C1=108.37               
H20-C2-C3=108.31               H21-C2-C1=108.80               H21-C2-C3=109.77               H21-C2-H20=107.33              
C4-C3-C2=121.45                C8-C3-C2=118.66                C8-C3-C4=119.88                C5-C4-C3=122.35                
H22-C4-C3=119.46               H22-C4-C5=118.08               C6-C5-C4=119.11                H23-C5-C4=120.21               
H23-C5-C6=120.37               C7-C6-C5=120.77                H24-C6-C5=119.11               H24-C6-C7=120.06               
C8-C7-C6=121.96                H25-C7-C6=120.67               H25-C7-C8=117.31               C7-C8-C3=111.95                
C9-C8-C3=109.41                C9-C8-C7=108.98                H26-C8-C3=110.07               H26-C8-C7=109.82               
H26-C8-C9=106.45               C10-C9-C8=111.79               C11-C9-C8=112.31               C11-C9-C10=108.95              
H27-C9-C8=106.44               H27-C9-C10=108.24              H27-C9-C11=108.98              H28-C10-C9=111.11              
H29-C10-C9=109.36              H29-C10-H28=108.23             H30-C10-C9=110.79              H30-C10-H28=108.86             
H30-C10-H29=108.40             

 selected dihedral angles (degree)
 ---------------------------------
C3-C2-C1-H17=182.03           C3-C2-C1-H18=301.42           C3-C2-C1-H19= 62.04           H20-C2-C1-H17= 61.32          
H20-C2-C1-H18=180.72          H20-C2-C1-H19=301.34          H21-C2-C1-H17=304.93          H21-C2-C1-H18= 64.33          
H21-C2-C1-H19=184.94          C4-C3-C2-C1=308.26            C4-C3-C2-H20= 68.99           C4-C3-C2-H21=185.89           
C8-C3-C2-C1=129.29            C8-C3-C2-H20=250.02           C8-C3-C2-H21=  6.92           C5-C4-C3-C2=188.67            
C5-C4-C3-C8=  7.62            H22-C4-C3-C2=  4.87           H22-C4-C3-C8=183.82           C6-C5-C4-C3=  7.48            
C6-C5-C4-H22=191.23           H23-C5-C4-C3=181.13           H23-C5-C4-H22=  4.88          C7-C6-C5-C4=352.42            
C7-C6-C5-H23=178.79           H24-C6-C5-C4=169.46           H24-C6-C5-H23=355.82          C8-C7-C6-C5=352.42            
C8-C7-C6-H24=175.41           H25-C7-C6-C5=175.24           H25-C7-C6-H24=358.23          C7-C8-C3-C2=158.42            
C7-C8-C3-C4=339.44            C9-C8-C3-C2=279.34            C9-C8-C3-C4=100.36            H26-C8-C3-C2= 35.98           
H26-C8-C3-C4=216.99           C3-C8-C7-C6= 20.83            C3-C8-C7-H25=198.10           C9-C8-C7-C6=259.67            
C9-C8-C7-H25= 76.94           H26-C8-C7-C6=143.42           H26-C8-C7-H25=320.68          C10-C9-C8-C3=192.33           
C10-C9-C8-C7=315.04           C10-C9-C8-H26= 73.43          C11-C9-C8-C3= 69.51           C11-C9-C8-C7=192.22           
C11-C9-C8-H26=310.61          H27-C9-C8-C3=310.33           H27-C9-C8-C7= 73.03           H27-C9-C8-H26=191.42          
H28-C10-C9-C8=305.96          H28-C10-C9-C11= 70.68         H28-C10-C9-H27=189.05         H29-C10-C9-C8=186.54          
H29-C10-C9-C11=311.26         H29-C10-C9-H27= 69.63         H30-C10-C9-C8= 67.11          H30-C10-C9-C11=191.83         
H30-C10-C9-H27=310.20         
           -------------------------------------------------
          |                Final Singlepoint                |
           -------------------------------------------------

          ...................................................
          :                      SETUP                      :
          :.................................................:
          :  # basis functions                  83          :
          :  # atomic orbitals                  83          :
          :  # shells                           51          :
          :  # electrons                        83          :
          :  max. iterations                   250          :
          :  Hamiltonian                  GFN2-xTB          :
          :  restarted?                      false          :
          :  GBSA solvation                  false          :
          :  PC potential                    false          :
          :  electronic temp.          300.0000000     K    :
          :  accuracy                    1.0000000          :
          :  -> integral cutoff          0.2500000E+02      :
          :  -> integral neglect         0.1000000E-07      :
          :  -> SCF convergence          0.1000000E-05 Eh   :
          :  -> wf. convergence          0.1000000E-03 e    :
          :  Broyden damping             0.4000000          :
          :  net charge                          0          :
          :  unpaired electrons                  0          :
          ...................................................

 iter      E             dE          RMSdq      gap      omega  full diag
   1    -44.6638323 -0.446638E+02  0.593E-05    2.14       0.0  T
   2    -44.6638323 -0.141824E-10  0.434E-05    2.14     389.1  T
   3    -44.6638323 -0.404299E-10  0.227E-05    2.14     744.8  T

   *** convergence criteria satisfied after 3 iterations ***

         #    Occupation            Energy/Eh            Energy/eV
      -------------------------------------------------------------
         1        2.0000           -0.6443305             -17.5331
       ...           ...                  ...                  ...
        36        2.0000           -0.4168402             -11.3428
        37        2.0000           -0.4131965             -11.2436
        38        2.0000           -0.4051251             -11.0240
        39        2.0000           -0.4008427             -10.9075
        40        2.0000           -0.3920216             -10.6674
        41        2.0000           -0.3862538             -10.5105
        42        1.0000           -0.2995239              -8.1505 (HOMO)
        43                         -0.2207773              -6.0077 (LUMO)
        44                         -0.2198325              -5.9819
        45                         -0.2030906              -5.5264
        46                         -0.1240718              -3.3762
        47                         -0.0913930              -2.4869
       ...                                ...                  ...
        83                          0.6663286              18.1317
      -------------------------------------------------------------
                  HL-Gap            0.0787466 Eh            2.1428 eV
             Fermi-level           -0.3015197 Eh           -8.2048 eV

 SCC (total)                   0 d,  0 h,  0 min,  0.007 sec
 SCC setup                      ...        0 min,  0.000 sec (  0.824%)
 Dispersion                     ...        0 min,  0.000 sec (  1.363%)
 classical contributions        ...        0 min,  0.000 sec (  0.313%)
 integral evaluation            ...        0 min,  0.001 sec ( 14.260%)
 iterations                     ...        0 min,  0.003 sec ( 36.701%)
 molecular gradient             ...        0 min,  0.003 sec ( 43.043%)
 printout                       ...        0 min,  0.000 sec (  3.374%)

         :::::::::::::::::::::::::::::::::::::::::::::::::::::
         ::                     SUMMARY                     ::
         :::::::::::::::::::::::::::::::::::::::::::::::::::::
         :: total energy             -43.878973500409 Eh    ::
         :: gradient norm              0.000393568287 Eh/a0 ::
         :: HOMO-LUMO gap              2.142803813342 eV    ::
         ::.................................................::
         :: SCC energy               -44.663195261683 Eh    ::
         :: -> isotropic ES            0.004360649666 Eh    ::
         :: -> anisotropic ES          0.008941938891 Eh    ::
         :: -> anisotropic XC          0.028476341578 Eh    ::
         :: -> dispersion             -0.037294322953 Eh    ::
         :: repulsion energy           0.784221761275 Eh    ::
         :: add. restraining           0.000000000000 Eh    ::
         :: total charge               0.000000000000 e     ::
         :::::::::::::::::::::::::::::::::::::::::::::::::::::

           -------------------------------------------------
          |                Property Printout                |
           -------------------------------------------------

    * Orbital Energies and Occupations

         #    Occupation            Energy/Eh            Energy/eV
      -------------------------------------------------------------
         1        2.0000           -0.6443305             -17.5331
       ...           ...                  ...                  ...
        30        2.0000           -0.4475863             -12.1794
        31        2.0000           -0.4462865             -12.1441
        32        2.0000           -0.4417860             -12.0216
        33        2.0000           -0.4393307             -11.9548
        34        2.0000           -0.4299360             -11.6992
        35        2.0000           -0.4210952             -11.4586
        36        2.0000           -0.4168402             -11.3428
        37        2.0000           -0.4131965             -11.2436
        38        2.0000           -0.4051251             -11.0240
        39        2.0000           -0.4008427             -10.9075
        40        2.0000           -0.3920216             -10.6674
        41        2.0000           -0.3862538             -10.5105
        42        1.0000           -0.2995239              -8.1505 (HOMO)
        43                         -0.2207773              -6.0077 (LUMO)
        44                         -0.2198325              -5.9819
        45                         -0.2030906              -5.5264
        46                         -0.1240718              -3.3762
        47                         -0.0913930              -2.4869
        48                          0.0627471               1.7074
        49                          0.0871952               2.3727
        50                          0.0891828               2.4268
        51                          0.1129596               3.0738
        52                          0.1165896               3.1726
        53                          0.1253641               3.4113
       ...                                ...                  ...
        83                          0.6663286              18.1317
      -------------------------------------------------------------
                  HL-Gap            0.0787466 Eh            2.1428 eV
             Fermi-level           -0.3015197 Eh           -8.2048 eV

     #   Z          covCN         q      C6AA      α(0)
     1   6 C        3.751    -0.099    22.459     6.758
     2   6 C        3.805    -0.058    21.605     6.617
     3   6 C        2.957    -0.001    28.047     8.687
     4   6 C        2.909    -0.041    29.007     8.831
     5   6 C        2.916    -0.045    29.115     8.848
     6   6 C        2.904    -0.035    28.865     8.809
     7   6 C        2.910    -0.045    29.117     8.848
     8   6 C        3.859    -0.017    20.832     6.491
     9   6 C        3.856    -0.014    20.787     6.484
    10   6 C        3.756    -0.100    22.455     6.756
    11   6 C        2.973     0.014    27.692     8.632
    12   6 C        2.925    -0.035    28.874     8.812
    13   6 C        2.919    -0.032    28.789     8.799
    14   6 C        2.920    -0.033    28.828     8.805
    15   6 C        2.919    -0.030    28.742     8.791
    16   6 C        2.926    -0.035    28.879     8.813
    17   1 H        0.925     0.032     2.556     2.500
    18   1 H        0.925     0.037     2.486     2.466
    19   1 H        0.925     0.037     2.494     2.470
    20   1 H        0.924     0.040     2.443     2.444
    21   1 H        0.924     0.035     2.516     2.481
    22   1 H        0.926     0.026     2.642     2.542
    23   1 H        0.926     0.022     2.707     2.573
    24   1 H        0.925     0.023     2.691     2.565
    25   1 H        0.926     0.025     2.662     2.551
    26   1 H        0.924     0.041     2.438     2.442
    27   1 H        0.924     0.036     2.505     2.475
    28   1 H        0.925     0.039     2.468     2.457
    29   1 H        0.925     0.036     2.509     2.477
    30   1 H        0.925     0.041     2.435     2.440
    31   1 H        0.926     0.028     2.615     2.529
    32   1 H        0.926     0.027     2.629     2.536
    33   1 H        0.926     0.027     2.625     2.533
    34   1 H        0.926     0.028     2.618     2.530
    35   1 H        0.925     0.025     2.659     2.550

 Mol. C6AA /au·bohr⁶  :      12653.567936
 Mol. C8AA /au·bohr⁸  :     299414.584885
 Mol. α(0) /au        :        177.342894


Wiberg/Mayer (AO) data.
largest (>0.10) Wiberg bond orders for each atom

 ---------------------------------------------------------------------------
     #   Z sym  total        # sym  WBO       # sym  WBO       # sym  WBO
 ---------------------------------------------------------------------------
     1   6 C    3.996 --     2 C    1.005    17 H    0.987    19 H    0.985
                            18 H    0.984
     2   6 C    3.997 --     3 C    1.023     1 C    1.005    21 H    0.972
                            20 H    0.954
     3   6 C    3.916 --     4 C    1.571     8 C    1.027     2 C    1.023
     4   6 C    3.992 --     3 C    1.571     5 C    1.337    22 H    0.963
     5   6 C    3.877 --     4 C    1.337     6 C    1.307    23 H    0.974
     6   6 C    3.992 --     7 C    1.629     5 C    1.307    24 H    0.968
     7   6 C    3.922 --     6 C    1.629     8 C    1.038    25 H    0.970
     8   6 C    3.994 --     7 C    1.038     3 C    1.027    26 H    0.942
                             9 C    0.888
     9   6 C    3.986 --    11 C    1.007    10 C    0.995    27 H    0.968
                             8 C    0.888
    10   6 C    3.995 --     9 C    0.995    28 H    0.985    29 H    0.984
                            30 H    0.983
    11   6 C    3.988 --    16 C    1.408    12 C    1.400     9 C    1.007
                            14 C    0.108
    12   6 C    3.990 --    13 C    1.452    11 C    1.400    31 H    0.966
                            15 C    0.110
    13   6 C    3.992 --    12 C    1.452    14 C    1.432    32 H    0.971
                            16 C    0.108
    14   6 C    3.989 --    15 C    1.441    13 C    1.432    33 H    0.972
                            11 C    0.108
    15   6 C    3.992 --    16 C    1.442    14 C    1.441    34 H    0.971
                            12 C    0.110
    16   6 C    3.990 --    15 C    1.442    11 C    1.408    35 H    0.968
                            13 C    0.108
    17   1 H    0.998 --     1 C    0.987
    18   1 H    0.999 --     1 C    0.984
    19   1 H    0.999 --     1 C    0.985
    20   1 H    0.998 --     2 C    0.954
    21   1 H    0.998 --     2 C    0.972
    22   1 H    0.999 --     4 C    0.963
    23   1 H    0.999 --     5 C    0.974
    24   1 H    0.999 --     6 C    0.968
    25   1 H    0.999 --     7 C    0.970
    26   1 H    0.998 --     8 C    0.942
    27   1 H    0.998 --     9 C    0.968
    28   1 H    0.998 --    10 C    0.985
    29   1 H    0.997 --    10 C    0.984
    30   1 H    0.997 --    10 C    0.983
    31   1 H    0.999 --    12 C    0.966
    32   1 H    0.999 --    13 C    0.971
    33   1 H    0.999 --    14 C    0.972
    34   1 H    0.999 --    15 C    0.971
    35   1 H    0.999 --    16 C    0.968
 ---------------------------------------------------------------------------

Topologies differ in total number of bonds
Writing topology from bond orders to xtbtopo.mol

molecular dipole:
                 x           y           z       tot (Debye)
 q only:       -0.232       0.102      -0.027
   full:       -0.267       0.126      -0.039       0.758
molecular quadrupole (traceless):
                xx          xy          yy          xz          yz          zz
 q only:       -1.445       2.384       0.884       0.855      -0.382       0.561
  q+dip:       -0.378       0.443       1.591       4.769       0.486      -1.214
   full:       -1.036       1.785       0.856       2.101      -0.119       0.180

           -------------------------------------------------
          |                Geometry Summary                 |
           -------------------------------------------------

      molecular mass/u    :      211.3226486
   center of mass at/Å    :       -0.0328198      -0.0348351       0.0073304
  moments of inertia/u·Å² :        0.5344144E+03   0.1255571E+04   0.1550787E+04
rotational constants/cm⁻¹ :        0.3154412E-01   0.1342627E-01   0.1087037E-01

 * 31 selected distances

     #   Z          #   Z                                           value/Å
     1   6 C        2   6 C                                       1.5288246
     3   6 C        4   6 C                                       1.3644890
     4   6 C        5   6 C                                       1.3992157
     5   6 C        6   6 C                                       1.4029226
     6   6 C        7   6 C                                       1.3551779
     9   6 C       10   6 C                                       1.5312687 (max)
    11   6 C       12   6 C                                       1.3918864
    12   6 C       13   6 C                                       1.3823505
    13   6 C       14   6 C                                       1.3848915
    14   6 C       15   6 C                                       1.3835998
    11   6 C       16   6 C                                       1.3897310
    15   6 C       16   6 C                                       1.3839272
     1   6 C       17   1 H                                       1.0876804
     1   6 C       18   1 H                                       1.0865808
     1   6 C       19   1 H                                       1.0864912
     2   6 C       20   1 H                                       1.0966852
     2   6 C       21   1 H                                       1.0908675
     4   6 C       22   1 H                                       1.0811471
     5   6 C       23   1 H                                       1.0782638 (min)
     6   6 C       24   1 H                                       1.0813665
     7   6 C       25   1 H                                       1.0790756
     8   6 C       26   1 H                                       1.0973950
     9   6 C       27   1 H                                       1.0949668
    10   6 C       28   1 H                                       1.0873364
    10   6 C       29   1 H                                       1.0887509
    10   6 C       30   1 H                                       1.0867157
    12   6 C       31   1 H                                       1.0808597
    13   6 C       32   1 H                                       1.0806286
    14   6 C       33   1 H                                       1.0800095
    15   6 C       34   1 H                                       1.0804681
    16   6 C       35   1 H                                       1.0815333

 * 2 distinct bonds (by element types)

   Z      Z             #   av. dist./Å        max./Å        min./Å
   1 H    6 C          19     1.0856222     1.0973950     1.0782638
   6 C    6 C          12     1.4081904     1.5312687     1.3551779


optimized geometry written to: xtbopt.xyz


           -------------------------------------------------
          | TOTAL ENERGY              -43.878973500409 Eh   |
          | GRADIENT NORM               0.000393568287 Eh/α |
          | HOMO-LUMO GAP               2.142803813342 eV   |
           -------------------------------------------------

------------------------------------------------------------------------
 * finished run on 2025/09/15 at 14:52:51.522     
------------------------------------------------------------------------
 total:
 * wall-time:     0 d,  0 h,  0 min,  0.234 sec
 *  cpu-time:     0 d,  0 h,  0 min,  0.918 sec
 * ratio c/w:     3.920 speedup
 SCF:
 * wall-time:     0 d,  0 h,  0 min,  0.024 sec
 *  cpu-time:     0 d,  0 h,  0 min,  0.094 sec
 * ratio c/w:     3.843 speedup
 ANC optimizer:
 * wall-time:     0 d,  0 h,  0 min,  0.192 sec
 *  cpu-time:     0 d,  0 h,  0 min,  0.767 sec
 * ratio c/w:     4.000 speedup

