35
 energy: -43.867055905452 gnorm: 0.072236877431 xtb: 6.7.1 (edcfbbe)
C            1.77970000000000        2.32770000000000       -0.28190000000000
C            1.29810000000000        1.20770000000000       -1.19630000000000
C            1.58830000000000       -0.18570000000000       -0.68180000000000
C            2.85260000000000       -0.55840000000000       -0.39130000000000
C            3.13050000000000       -1.93290000000000       -0.05840000000000
C            2.21110000000000       -2.98480000000000       -0.40190000000000
C            0.94410000000000       -2.64930000000000       -0.68680000000000
C            0.42150000000000       -1.20770000000000       -0.63380000000000
C           -0.50960000000000       -0.99750000000000        0.61800000000000
C           -1.44550000000000       -2.18780000000000        0.90730000000000
C           -1.37810000000000        0.25620000000000        0.54050000000000
C           -2.32070000000000        0.43730000000000       -0.48460000000000
C           -3.11380000000000        1.58560000000000       -0.52800000000000
C           -2.98160000000000        2.56340000000000        0.45500000000000
C           -2.06000000000000        2.39210000000000        1.48510000000000
C           -1.26660000000000        1.24430000000000        1.53070000000000
H            1.43120000000000        3.29470000000000       -0.65900000000000
H            1.40350000000000        2.20540000000000        0.73790000000000
H            2.87280000000000        2.36750000000000       -0.23740000000000
H            1.76900000000000        1.32100000000000       -2.18130000000000
H            0.22820000000000        1.33790000000000       -1.37620000000000
H            3.69250000000000        0.12490000000000       -0.45840000000000
H            4.12450000000000       -2.19700000000000        0.28550000000000
H            2.56110000000000       -4.01010000000000       -0.43670000000000
H            0.23860000000000       -3.42710000000000       -0.96520000000000
H           -0.15700000000000       -1.07640000000000       -1.55830000000000
H            0.14380000000000       -0.90350000000000        1.49780000000000
H           -2.05130000000000       -2.44930000000000        0.03260000000000
H           -2.13210000000000       -1.95940000000000        1.73140000000000
H           -0.88010000000000       -3.07590000000000        1.20790000000000
H           -2.44580000000000       -0.31490000000000       -1.25980000000000
H           -3.83690000000000        1.71530000000000       -1.32900000000000
H           -3.59950000000000        3.45660000000000        0.42090000000000
H           -1.95840000000000        3.15170000000000        2.25560000000000
H           -0.55380000000000        1.12870000000000        2.34440000000000
35
 energy: -43.875700401880 gnorm: 0.032252179532 xtb: 6.7.1 (edcfbbe)
C            1.77466598982598        2.31243634322865       -0.28064625327285
C            1.27683600294290        1.19147733600641       -1.19120683422914
C            1.56197084506182       -0.20286957847179       -0.68761276743539
C            2.82752121215183       -0.58528348659922       -0.38176024867004
C            3.14394851403046       -1.93216589866907       -0.08438812569179
C            2.20487738352252       -2.95031236314262       -0.37501087787348
C            0.93091591323007       -2.62157749292523       -0.67446288874376
C            0.41372139998995       -1.20364149115124       -0.63716443958078
C           -0.50374279332612       -0.98621644924439        0.61630889890172
C           -1.42959266134365       -2.18266059547380        0.88842420434632
C           -1.35481842547655        0.26676555001990        0.52740762979718
C           -2.30031021884501        0.44146027887115       -0.48195736926324
C           -3.09832257048362        1.57523750461933       -0.52101403830298
C           -2.97235246372227        2.55069282015093        0.45464488729333
C           -2.05344373025434        2.38006882091365        1.47635114987008
C           -1.25481789945414        1.24669877080915        1.51206868742953
H            1.43158136097634        3.27722670009472       -0.65579295207258
H            1.39263857662320        2.18874213529144        0.73095058723493
H            2.86308386927756        2.34287100709123       -0.23370566277252
H            1.76299463786300        1.30813351376772       -2.16905688652679
H            0.20471914932624        1.32040680267027       -1.35526626732895
H            3.65089415176417        0.11721457921292       -0.40685675864430
H            4.13719626573850       -2.19241922628809        0.25206471643590
H            2.54590323159898       -3.97637872497563       -0.39557069601872
H            0.22549855984079       -3.38984943702507       -0.96375454653914
H           -0.19532601262657       -1.05542457289501       -1.53869742022584
H            0.16208860988375       -0.88823259997731        1.48221461989406
H           -2.03633983727119       -2.43460115581626        0.01906370908582
H           -2.10741525629753       -1.93737907699315        1.70838850360693
H           -0.86084221131889       -3.06456606511026        1.18352399610881
H           -2.42432032751131       -0.31133035864795       -1.24957846257516
H           -3.82085023276885        1.70017515319727       -1.31733846024940
H           -3.59032911241571        3.43871602641982        0.42078718516100
H           -1.95624029520688        3.13364063426181        2.24707816535676
H           -0.55169162532545        1.12324459677975        2.32606501549449
35
 energy: -43.878090133702 gnorm: 0.008845541764 xtb: 6.7.1 (edcfbbe)
C            1.76272776430279        2.29688325171225       -0.27157847369170
C            1.25712634514533        1.18194162145417       -1.18880390283157
C            1.54010236031498       -0.20992063060339       -0.69412811541753
C            2.80512274659263       -0.59515937298020       -0.36113431435007
C            3.14284481691110       -1.92579731258528       -0.09545773304796
C            2.19634798896923       -2.92486114993621       -0.36044814883645
C            0.92008798578300       -2.60455307766057       -0.68273965496294
C            0.41288170839342       -1.20134632264078       -0.65646863765556
C           -0.48945762007548       -0.97762966618156        0.61086975262322
C           -1.41568550499590       -2.16995213726234        0.87804613642715
C           -1.33603648363240        0.26723241638895        0.52361803975692
C           -2.27897395982698        0.43922751979107       -0.48321108888571
C           -3.07885283755089        1.56609025244861       -0.52284578168871
C           -2.95897644243061        2.54162430853044        0.45082252325957
C           -2.03810145974078        2.37449326045207        1.46839285022994
C           -1.23818920265745        1.24701026365307        1.50262136757120
H            1.42897401851340        3.26116879223055       -0.64895486678661
H            1.37379454902566        2.17032864758957        0.73474819498666
H            2.84847904686928        2.31019555608749       -0.22464889374248
H            1.74395817216437        1.29999434823904       -2.16517522407803
H            0.18373920904605        1.30797670588856       -1.33760743182454
H            3.60975689657649        0.13003263395045       -0.35702332080364
H            4.14314468182153       -2.18556518248139        0.21208819457987
H            2.51794918446955       -3.95827500702743       -0.34215965344846
H            0.21320014962970       -3.37345233007474       -0.95449220796736
H           -0.23368748378456       -1.04135031433057       -1.53264007394576
H            0.18483821598901       -0.88024537980497        1.46814278086600
H           -2.01647251293786       -2.40991523733976        0.00507580584688
H           -2.09106185282057       -1.92303447364214        1.69591893670695
H           -0.84190580078756       -3.04802938118402        1.16153771950758
H           -2.39706141497503       -0.31368385201692       -1.24880895424152
H           -3.80619306733665        1.68237343022773       -1.31327470624383
H           -3.58483907347845        3.42135576268432        0.42111966864652
H           -1.94748347265651        3.12242394229731        2.24236761073673
H           -0.53179765082984        1.12271811412668        2.31073160270527
35
 energy: -43.878515397352 gnorm: 0.005924550201 xtb: 6.7.1 (edcfbbe)
C            1.75167155998478        2.28920485145954       -0.26316288380199
C            1.24307177520107        1.18217612911657       -1.18819459586574
C            1.53182631382568       -0.21031054383489       -0.70505396555916
C            2.79583546964740       -0.59052196459073       -0.35590440300484
C            3.13759675092145       -1.92117222461110       -0.09869022059130
C            2.18831546185157       -2.92294436047104       -0.34698476393417
C            0.91380752427140       -2.60665985152158       -0.68441067679547
C            0.41085901078395       -1.20354256786124       -0.67164158779142
C           -0.48098239202961       -0.97551521114428        0.60823170074991
C           -1.40815521729320       -2.16607707208517        0.87516301825825
C           -1.32012508104744        0.27047731945165        0.51956238897935
C           -2.26479891162877        0.43864739288080       -0.48742312428400
C           -3.06985737677956        1.56164539518383       -0.52515095105151
C           -2.95265375922661        2.53738923403871        0.44981738724848
C           -2.02760307294073        2.37516563992847        1.46563510668640
C           -1.22117102308314        1.25189449685179        1.49758024760234
H            1.42600058701907        3.25736300152362       -0.63686767664816
H            1.35641581533369        2.15695527431112        0.74004435395694
H            2.83710106795166        2.29206260988195       -0.21144468476434
H            1.72272326538297        1.30725891457556       -2.16643228700595
H            0.16867571031276        1.30650492469595       -1.32957221289277
H            3.58809131878281        0.14883597088355       -0.33100992369590
H            4.14231041143348       -2.17955384699008        0.19534653202641
H            2.50114606427037       -3.95873075425129       -0.31547770966175
H            0.20900220273201       -3.37884450763603       -0.95033869694968
H           -0.24900617599839       -1.04320500024358       -1.53760935538447
H            0.20253858130327       -0.88007004149437        1.45858209656529
H           -2.00908399714800       -2.39832861827286       -0.00024590733769
H           -2.08188330501555       -1.91987507270943        1.69394258365641
H           -0.83539210713772       -3.04633423375121        1.15317311529179
H           -2.37946036458848       -0.31546934946861       -1.25287416764446
H           -3.79662091909999        1.67533971936149       -1.31644612802321
H           -3.58141058631742        3.41470711044026        0.42017092460329
H           -1.93677238050909        3.12404928423911        2.23859370667626
H           -0.51171222116569        1.12777795211359        2.30359276038691
35
 energy: -43.878691239755 gnorm: 0.002961137438 xtb: 6.7.1 (edcfbbe)
C            1.73783642312612        2.28239179961305       -0.25350680023993
C            1.22885134932520        1.18366378298056       -1.18738613347138
C            1.52593924455740       -0.21061681423504       -0.71614782830157
C            2.78807147532568       -0.58473344164592       -0.35204857316419
C            3.12978162469784       -1.91561328132097       -0.09410823358154
C            2.18531401816651       -2.92254333932200       -0.34116738627488
C            0.91323554821955       -2.61163835018354       -0.69175446782834
C            0.40892874663800       -1.20854981551370       -0.68669431554640
C           -0.47481457430050       -0.97587552813563        0.60370903157174
C           -1.40401513035180       -2.16308590088470        0.87488734169838
C           -1.30982358043536        0.27114678893470        0.51822948140557
C           -2.25470024994583        0.43820296560278       -0.49007290878582
C           -3.06006935009101        1.56091330112414       -0.52844685858390
C           -2.94255658583024        2.53683972563584        0.44710969954131
C           -2.01359095156537        2.37860968426310        1.46079627166357
C           -1.20586940975684        1.25569798561338        1.49372216942751
H            1.42088075871972        3.25554790823718       -0.62183375051206
H            1.33473441434473        2.14452474041327        0.74622940574970
H            2.82292804932327        2.27766319190866       -0.19392804706138
H            1.69913074415491        1.31968525034054       -2.16865451952210
H            0.15318401146639        1.30593378562999       -1.32168309661155
H            3.57171185523870        0.16000364611960       -0.32024542779924
H            4.13676623054955       -2.17190398518318        0.19357392432775
H            2.49328424054803       -3.95887428533194       -0.29351119666751
H            0.21079419576234       -3.38842218198069       -0.95088130695011
H           -0.25667219069166       -1.05103392381258       -1.54623649897990
H            0.21865919784027       -0.88354254629809        1.44653015306363
H           -2.00790700872543       -2.39132278522571       -0.00011810098144
H           -2.07449851890778       -1.91706451361493        1.69644491263891
H           -0.83262853322978       -3.04560320046280        1.14914546498379
H           -2.36659151752176       -0.31634903898740       -1.25599623320521
H           -3.78765994342808        1.67248271043641       -1.31959403893272
H           -3.57592754439250        3.41108549774345        0.41989947768209
H           -1.92152564773103        3.12914050692049        2.23237996368286
H           -0.49088139109921        1.13353966062181        2.29585842556441
35
 energy: -43.878748261491 gnorm: 0.002005785380 xtb: 6.7.1 (edcfbbe)
C            1.72771014339612        2.27861695773649       -0.24754046587850
C            1.22052158777612        1.18471604812647       -1.18736162397151
C            1.52346918259781       -0.21104865022143       -0.72348991661103
C            2.78444985372410       -0.58170031777519       -0.35428697388764
C            3.12556646677130       -1.91187091007472       -0.08894575671809
C            2.18489599783595       -2.92250937099264       -0.33725200437802
C            0.91442237718407       -2.61478923194818       -0.69541596986959
C            0.40794463940194       -1.21204474740648       -0.69406012437328
C           -0.47271973383762       -0.97822777342956        0.60000117602038
C           -1.40317175315952       -2.16323123155562        0.87548483269651
C           -1.30512358127000        0.27060342786139        0.51642566469889
C           -2.25105232307331        0.43845553700021       -0.49125080108940
C           -3.05508098723214        1.56220459561300       -0.52946793011560
C           -2.93469998922824        2.53823932058892        0.44570230798986
C           -2.00335743468952        2.38070640227791        1.45723588859343
C           -1.19694772101551        1.25653199653577        1.49041778447094
H            1.41552816754016        3.25450875128816       -0.61284777729068
H            1.31874292017358        2.13811005482572        0.74964286991336
H            2.81242383760404        2.27130306195559       -0.18150407889035
H            1.68527222707204        1.32893114909729       -2.17035795344446
H            0.14397820366196        1.30446962961631       -1.31753077369097
H            3.56537967622515        0.16453451104701       -0.31754244171703
H            4.13136825703142       -2.16539061389345        0.20447107703301
H            2.49445503586024       -3.95713174899701       -0.28641922225297
H            0.21453720134448       -3.39332508511234       -0.95667877757195
H           -0.25795304861927       -1.05765467757131       -1.55219318708439
H            0.22534892840542       -0.88766181164415        1.43896584782231
H           -2.01108462960828       -2.39113497189407        0.00305720429829
H           -2.07024313320863       -1.91591521281005        1.69971167197901
H           -0.83296526713726       -3.04709625770183        1.14846895823538
H           -2.36396202401421       -0.31654039424479       -1.25657513306723
H           -3.78257973969596        1.67459556106870       -1.32066517539678
H           -3.56748450781360        3.41299739061960        0.41901787450997
H           -1.90758755958817        3.13336344588834        2.22651674426896
H           -0.47970127041464        1.13468516612611        2.29076618476926
35
 energy: -43.878790102654 gnorm: 0.001909894590 xtb: 6.7.1 (edcfbbe)
C            1.71632733867114        2.27565603395941       -0.24252891925023
C            1.21289755159283        1.18524406770633       -1.18777611139806
C            1.52061463704257       -0.21115797541555       -0.72830496924739
C            2.78049184558926       -0.57850613394542       -0.35461763353041
C            3.12211511197997       -1.90787970287992       -0.08218299303979
C            2.18582069166134       -2.92136799861122       -0.33550618235529
C            0.91668301881539       -2.61678430437916       -0.70029876680560
C            0.40681883350940       -1.21521964297506       -0.69956824015696
C           -0.47165393440453       -0.98154384268820        0.59597888167704
C           -1.40268254018530       -2.16507700001714        0.87498778961263
C           -1.30246402679009        0.26880988703910        0.51451003842150
C           -2.24993739475747        0.43859083115595       -0.49145808996111
C           -3.05041131628861        1.56486445351828       -0.52963146571942
C           -2.92439302511339        2.54167013453261        0.44395957898169
C           -1.99134756277860        2.38270911648342        1.45331620328442
C           -1.18903597687144        1.25554006486838        1.48694954797304
H            1.40868802467499        3.25345169338242       -0.60663365010757
H            1.30010929145208        2.13364932816429        0.75148893486131
H            2.80050975345093        2.26635108243295       -0.16851280623658
H            1.67525731049780        1.33659240741843       -2.17093374819537
H            0.13584747486263        1.30156020712077       -1.31611863001014
H            3.56109624332670        0.16693666803826       -0.31803367982144
H            4.12546791267207       -2.15818314719195        0.22251948528122
H            2.49847588247709       -3.95460709503220       -0.28004950960018
H            0.21937623936385       -3.39659057745229       -0.96531907408052
H           -0.25886506852274       -1.06339779179942       -1.55757885716254
H            0.22906677755883       -0.89235252076741        1.43244641105404
H           -2.01569750664634       -2.39305970062539        0.00616541935827
H           -2.06533466087289       -1.91602140230212        1.70250019905740
H           -0.83315352072617       -3.05004553815558        1.14631572501759
H           -2.36590538595694       -0.31683253820232       -1.25575230660165
H           -3.77874745560154        1.67889367610405       -1.31981097715727
H           -3.55451490124394        3.41841557579710        0.41765349073592
H           -1.89063949663350        3.13716037468979        2.22032357292469
H           -0.47058016580529        1.13283131002908        2.28600133219684
35
 energy: -43.878827433781 gnorm: 0.001586228563 xtb: 6.7.1 (edcfbbe)
C            1.69928305357813        2.27350346754886       -0.23752792114746
C            1.20424533018493        1.18532413370732       -1.18951042154954
C            1.51623578099765       -0.21108971757698       -0.73276279188352
C            2.77481815731386       -0.57455925172267       -0.35357025304341
C            3.11795568000785       -1.90212430924636       -0.07150712139228
C            2.18684511046937       -2.91861711279666       -0.33143295437508
C            0.91939583575949       -2.61801822323763       -0.70545932920959
C            0.40491832711072       -1.21835550984260       -0.70418126500670
C           -0.47183488007683       -0.98735311483905        0.59131593096799
C           -1.40258508000736       -2.17029174160764        0.87292084324041
C           -1.30110525931867        0.26461997765240        0.51249729160261
C           -2.25073694369488        0.43816145328143       -0.49051595320078
C           -3.04368340769310        1.56969375247332       -0.52903534587132
C           -2.90718259459951        2.54863737989348        0.44097775082163
C           -1.97323520738377        2.38507611541280        1.44831962185433
C           -1.17966951278868        1.25181017302870        1.48303568430006
H            1.39737857870363        3.25252259467090       -0.60301775190900
H            1.27169330325343        2.13091099010155        0.75149972514850
H            2.78246201695474        2.26193711597229       -0.15113878759538
H            1.66893549597144        1.34333770300155       -2.17025005015565
H            0.12720436337094        1.29666785865977       -1.32011437392160
H            3.55649990519905        0.17061350249652       -0.31619320896870
H            4.11815003380600       -2.14772197178519        0.24893331035063
H            2.50561460970918       -3.94975752705029       -0.27488222890990
H            0.22621221402055       -3.39895545913669       -0.97847073996156
H           -0.26077073507346       -1.06867900153452       -1.56294748098893
H            0.22988543455744       -0.89928594182621        1.42665302679030
H           -2.02186649982458       -2.39692203753210        0.00833834148946
H           -2.05923045443576       -1.92097826560103        1.70522189488956
H           -0.83248513546234       -3.05638308103842        1.13962522371641
H           -2.37351469076915       -0.31813795517407       -1.25276502959461
H           -3.77385660346820        1.68687191105987       -1.31695474268788
H           -3.53000606625948        3.43058159069526        0.41360539927293
H           -1.86454313023429        3.14128568727045        2.21249160586860
H           -0.46112702987819        1.12597481462202        2.28130210105959
35
 energy: -43.878855034201 gnorm: 0.001152434830 xtb: 6.7.1 (edcfbbe)
C            1.68806561051003        2.27462053290634       -0.23656221847549
C            1.20104729464794        1.18488652127076       -1.19128838920173
C            1.51282033687916       -0.21017867771815       -0.73097744965744
C            2.77085775769655       -0.57164582329376       -0.34767311726929
C            3.11571435942993       -1.89861163935634       -0.06537442615838
C            2.18725459558743       -2.91623066106378       -0.32962750431475
C            0.92053626203126       -2.61781300444362       -0.70772850745039
C            0.40343560092448       -1.21923632813252       -0.70419017420657
C           -0.47332908462612       -0.99151026064093        0.59076590636271
C           -1.40298608835992       -2.17593960374724        0.86971871706069
C           -1.30146022830719        0.26123054665562        0.51296330838341
C           -2.25207637865245        0.43717562206807       -0.48850765397251
C           -3.03893033223012        1.57290887109616       -0.52810972234264
C           -2.89488602705607        2.55407719321631        0.43863772039453
C           -1.96179952529281        2.38654797866290        1.44620242234434
C           -1.17504399711699        1.24867684700790        1.48241863970402
H            1.38890901624553        3.25289337250422       -0.60600310641782
H            1.25248867524786        2.13314642467851        0.74897697814850
H            2.77039089647323        2.26259069059927       -0.14159845068509
H            1.67294346641439        1.34296353369302       -2.16827603316393
H            0.12476428757438        1.29391517874043       -1.32916209763010
H            3.55278083970153        0.17384033968466       -0.31216963118494
H            4.11498823879158       -2.14223839465724        0.25907400119295
H            2.50832279817426       -3.94723181884342       -0.27233834856357
H            0.22982818674072       -3.39954241654305       -0.98441858722814
H           -0.26267188829483       -1.06910084776493       -1.56328560664056
H            0.22761372046302       -0.90418911044083        1.42707744525602
H           -2.02417484537325       -2.39920692418600        0.00573586631188
H           -2.05725167780414       -1.92995660452568        1.70459165387745
H           -0.83154347089797       -3.06268568943137        1.13112509906511
H           -2.38048966247718       -0.32012891303033       -1.24892685418531
H           -3.76987615162453        1.69245674726849       -1.31490114845898
H           -3.51071895217952        3.44080141747869        0.40855399010042
H           -1.84772005894517        3.14348158126908        2.20872368995073
H           -0.45750357429481        1.11953331901923        2.28105358905502
35
 energy: -43.878893694251 gnorm: 0.001848565949 xtb: 6.7.1 (edcfbbe)
C            1.66847578428771        2.27905085624838       -0.23669510970977
C            1.19810485730195        1.18423672515858       -1.19496703338266
C            1.50776143313319       -0.20867350982918       -0.72705034480639
C            2.76518217142599       -0.56741015928243       -0.33839316557413
C            3.11236776364485       -1.89313450503365       -0.05532989992898
C            2.18754319043489       -2.91272930813858       -0.32521396891086
C            0.92192293680776       -2.61720567506764       -0.70923453208437
C            0.40081826181510       -1.21998268618879       -0.70229562535029
C           -0.47752395458537       -0.99983813597979        0.59227741629616
C           -1.40558664961432       -2.18731388702491        0.86344968937257
C           -1.30347912040921        0.25427297437151        0.51682730427166
C           -2.25463627156215        0.43454431364083       -0.48313938593616
C           -3.02942323255790        1.57858787996301       -0.52665119872055
C           -2.87236914203329        2.56405881796670        0.43380493902297
C           -1.94180064532604        2.38990815400599        1.44284956348641
C           -1.16796017763259        1.24333731815016        1.48352823350918
H            1.37322617837875        3.25507839302264       -0.61502581995264
H            1.21817420989626        2.14066926314519        0.74251951162932
H            2.74923336793379        2.26825048803542       -0.12569256080162
H            1.68585600058569        1.34012916751862       -2.16450532364390
H            0.12358981465502        1.29024787003240       -1.35005322466601
H            3.54547404343926        0.18148443906430       -0.29843018599486
H            4.11153112552099       -2.13440616777111        0.27037516589487
H            2.51197120987987       -3.94301435927490       -0.27256556024915
H            0.23542609200129       -3.39993534214460       -0.99297326610406
H           -0.26578094172956       -1.06857852599928       -1.56143628438848
H            0.22141897313838       -0.91525689346381        1.43103729552401
H           -2.02813436020395       -2.40324068327905       -0.00135852834665
H           -2.05755436264036       -1.95016240334582        1.70239944222334
H           -0.83149446282716       -3.07525124863083        1.11445565883766
H           -2.39285036469059       -0.32477711883669       -1.24001731013797
H           -3.76148985951059        1.70178913639504       -1.31190227389220
H           -3.47654184843416        3.45868685438541        0.39845089867227
H           -1.81907616306969        3.14819020299222        2.20258701454967
H           -0.45207585745351        1.10868775519523        2.28286846929168
35
 energy: -43.878914819503 gnorm: 0.001113397674 xtb: 6.7.1 (edcfbbe)
C            1.65074825153719        2.28337499642943       -0.23762620769383
C            1.19534185326753        1.18357888256471       -1.19761652623301
C            1.50313441206391       -0.20699200223715       -0.72157770982116
C            2.76009747683622       -0.56279448439919       -0.32739642629635
C            3.10979340658913       -1.88835815448404       -0.04715541835891
C            2.18908525479415       -2.90998025179349       -0.32412354271986
C            0.92390924910120       -2.61715099937850       -0.71132458986796
C            0.39888182512356       -1.22135102224401       -0.70126103824629
C           -0.48119804157536       -1.00738670702906        0.59426158930127
C           -1.40937933055190       -2.19659893142149        0.85679537049492
C           -1.30275534530365        0.24952222235171        0.52067863912008
C           -2.25404231196679        0.43329357057215       -0.47853336661514
C           -3.02029480723867        1.58302314143677       -0.52503308072828
C           -2.85413811862175        2.57081100998692        0.43133802438014
C           -1.92513319205129        2.39239191503896        1.44116120424883
C           -1.16010583639333        1.24002745100137        1.48508200342769
H            1.35881368402164        3.25712110571643       -0.62442799267900
H            1.18733590781149        2.14858387337490        0.73594629574887
H            2.73004114567978        2.27501568795460       -0.11202709156023
H            1.69582282495667        1.33737093248580       -2.16125279151801
H            0.12254127935142        1.28666977645204       -1.36776033504208
H            3.53730867230507        0.18765029365188       -0.28750924612791
H            4.10901174295773       -2.12831934262909        0.27917698575204
H            2.51477753801725       -3.94012580082654       -0.27126730439956