      -----------------------------------------------------------      
     |                   =====================                   |     
     |                           x T B                           |     
     |                   =====================                   |     
     |                         S. Grimme                         |     
     |          Mulliken Center for Theoretical Chemistry        |     
     |                    University of Bonn                     |     
      -----------------------------------------------------------      

   * xtb version 6.7.1 (edcfbbe) compiled by 'conda@c0858423619e' on 2025-09-04

   xtb is free software: you can redistribute it and/or modify it under
   the terms of the GNU Lesser General Public License as published by
   the Free Software Foundation, either version 3 of the License, or
   (at your option) any later version.
   
   xtb is distributed in the hope that it will be useful,
   but WITHOUT ANY WARRANTY; without even the implied warranty of
   MERCHANTABILITY or FITNESS FOR A PARTICULAR PURPOSE.  See the
   GNU Lesser General Public License for more details.
   
   Cite this work as:
   * C. Bannwarth, E. Caldeweyher, S. Ehlert, A. Hansen, P. Pracht,
     J. Seibert, S. Spicher, S. Grimme, WIREs Comput. Mol. Sci., 2020, 11,
     e01493. DOI: 10.1002/wcms.1493
   
   for GFN2-xTB:
   * C. Bannwarth, S. Ehlert and S. Grimme., J. Chem. Theory Comput., 2019,
     15, 1652-1671. DOI: 10.1021/acs.jctc.8b01176
   for GFN1-xTB:
   * S. Grimme, C. Bannwarth, P. Shushkov, J. Chem. Theory Comput., 2017,
     13, 1989-2009. DOI: 10.1021/acs.jctc.7b00118
   for GFN0-xTB:
   * P. Pracht, E. Caldeweyher, S. Ehlert, S. Grimme, ChemRxiv, 2019, preprint.
     DOI: 10.26434/chemrxiv.8326202.v1
   for GFN-FF:
   * S. Spicher and S. Grimme, Angew. Chem. Int. Ed., 2020, 59, 15665-15673.
     DOI: 10.1002/anie.202004239
   
   for ALPB and GBSA implicit solvation:
   * S. Ehlert, M. Stahn, S. Spicher, S. Grimme, J. Chem. Theory Comput.,
     2021, 17, 4250-4261. DOI: 10.1021/acs.jctc.1c00471
   
   for ddCOSMO and CPCM-X implicit solvation:
   * M. Stahn, S. Ehlert, S. Grimme, J. Phys. Chem. A,
     2023, XX, XXXX-XXXX. DOI: 10.1021/acs.jpca.3c04382
   
   for DFT-D4:
   * E. Caldeweyher, C. Bannwarth and S. Grimme, J. Chem. Phys., 2017,
     147, 034112. DOI: 10.1063/1.4993215
   * E. Caldeweyher, S. Ehlert, A. Hansen, H. Neugebauer, S. Spicher,
     C. Bannwarth and S. Grimme, J. Chem. Phys., 2019, 150, 154122.
     DOI: 10.1063/1.5090222
   * E. Caldeweyher, J.-M. Mewes, S. Ehlert and S. Grimme, Phys. Chem. Chem. Phys.
     2020, 22, 8499-8512. DOI: 10.1039/D0CP00502A
   
   for sTDA-xTB:
   * S. Grimme and C. Bannwarth, J. Chem. Phys., 2016, 145, 054103.
     DOI: 10.1063/1.4959605
   
   in the mass-spec context:
   * V. Asgeirsson, C. Bauer and S. Grimme, Chem. Sci., 2017, 8, 4879.
     DOI: 10.1039/c7sc00601b
   * J. Koopman and S. Grimme, ACS Omega 2019, 4, 12, 15120-15133.
     DOI: 10.1021/acsomega.9b02011
   
   for metadynamics refer to:
   * S. Grimme, J. Chem. Theory Comput., 2019, 155, 2847-2862
     DOI: 10.1021/acs.jctc.9b00143
   
   for SPH calculations refer to:
   * S. Spicher and S. Grimme, J. Chem. Theory Comput., 2021, 17, 1701-1714
     DOI: 10.1021/acs.jctc.0c01306
   
   for ONIOM refer to:
   * C. Plett, A. Katbashev, S. Ehlert, S. Grimme, M. Bursch,
     Phys. Chem. Chem. Phys., 2023, 25, 17860-17868. DOI: 10.1039/D3CP02178E
   
   for DIPRO refer to:
   * J. Kohn, N. Gildemeister, S. Grimme, D. Fazzi, A. Hansen,
     J. Chem. Phys., 2023, just accepted.
   
   for PTB refer to:
   * S. Grimme, M. Mueller, A. Hansen, J. Chem. Phys., 2023, 158, 124111.
     DOI: 10.1063/5.0137838
   
   with help from (in alphabetical order)
   P. Atkinson, C. Bannwarth, F. Bohle, G. Brandenburg, E. Caldeweyher
   M. Checinski, S. Dohm, S. Ehlert, S. Ehrlich, I. Gerasimov, C. Hölzer
   A. Katbashev, J. Kohn, J. Koopman, C. Lavigne, S. Lehtola, F. März, M. Müller,
   F. Musil, H. Neugebauer, J. Pisarek, C. Plett, P. Pracht, F. Pultar,
   J. Seibert, P. Shushkov, S. Spicher, M. Stahn, M. Steiner, T. Strunk,
   J. Stückrath, T. Rose, and J. Unsleber
   
 * started run on 2025/09/15 at 14:52:50.737     
   ID    Z sym.   atoms
    1    6 C      1-16
    2    1 H      17-35

           -------------------------------------------------
          |                Calculation Setup                |
           -------------------------------------------------

          program call               : /home/paufv/miniforge3/envs/htvs/bin/xtb gfn_opt.xyz --opt normal --parallel 4 --chrg 0 --uhf 0 --gfn2 --input xtb.inp
          coordinate file            : gfn_opt.xyz
          omp threads                :                     4

########################################################################
[WARNING] Please study the warnings concerning your input carefully
-3- set_opt: the key 'uhf' is not recognized by opt
-2- set_opt: the key 'charge' is not recognized by opt
-1- set_opt: the key 'method' is not recognized by opt
########################################################################

           -------------------------------------------------
          |                 G F N 2 - x T B                 |
           -------------------------------------------------

        Reference                      10.1021/acs.jctc.8b01176
      * Hamiltonian:
        H0-scaling (s, p, d)           1.850000    2.230000    2.230000
        zeta-weighting                 0.500000
      * Dispersion:
        s8                             2.700000
        a1                             0.520000
        a2                             5.000000
        s9                             5.000000
      * Repulsion:
        kExp                           1.500000    1.000000
        rExp                           1.000000
      * Coulomb:
        alpha                          2.000000
        third order                    shell-resolved
        anisotropic                    true
        a3                             3.000000
        a5                             4.000000
        cn-shift                       1.200000
        cn-exp                         4.000000
        max-rad                        5.000000

q/qsh data taken from xtbrestart
CAMM data taken from xtbrestart

          ...................................................
          :                      SETUP                      :
          :.................................................:
          :  # basis functions                  83          :
          :  # atomic orbitals                  83          :
          :  # shells                           51          :
          :  # electrons                        83          :
          :  max. iterations                   250          :
          :  Hamiltonian                  GFN2-xTB          :
          :  restarted?                       true          :
          :  GBSA solvation                  false          :
          :  PC potential                    false          :
          :  electronic temp.          300.0000000     K    :
          :  accuracy                    1.0000000          :
          :  -> integral cutoff          0.2500000E+02      :
          :  -> integral neglect         0.1000000E-07      :
          :  -> SCF convergence          0.1000000E-05 Eh   :
          :  -> wf. convergence          0.1000000E-03 e    :
          :  Broyden damping             0.4000000          :
          :  net charge                          0          :
          :  unpaired electrons                  0          :
          ...................................................

 iter      E             dE          RMSdq      gap      omega  full diag
   1    -44.5964834 -0.445965E+02  0.394E+00    1.94       0.0  T
   2    -44.6012216 -0.473824E-02  0.233E+00    2.13       1.0  T
   3    -44.5881728  0.130488E-01  0.633E-01    2.18       1.0  T
   4    -44.6033362 -0.151633E-01  0.138E-01    2.22       1.0  T
   5    -44.6036223 -0.286149E-03  0.773E-02    2.19       1.0  T
   6    -44.6036841 -0.617879E-04  0.314E-02    2.20       1.0  T
   7    -44.6036980 -0.138791E-04  0.946E-03    2.20       1.8  T
   8    -44.6037001 -0.204135E-05  0.304E-03    2.20       5.6  T
   9    -44.6037001 -0.817658E-07  0.139E-03    2.20      12.1  T
  10    -44.6037001 -0.693490E-08  0.681E-04    2.20      24.8  T
  11    -44.6037001 -0.915413E-08  0.231E-04    2.20      73.1  T

   *** convergence criteria satisfied after 11 iterations ***

         #    Occupation            Energy/Eh            Energy/eV
      -------------------------------------------------------------
         1        2.0000           -0.6383617             -17.3707
       ...           ...                  ...                  ...
        36        2.0000           -0.4152520             -11.2996
        37        2.0000           -0.4097477             -11.1498
        38        2.0000           -0.4043484             -11.0029
        39        2.0000           -0.3981905             -10.8353
        40        2.0000           -0.3918467             -10.6627
        41        2.0000           -0.3907034             -10.6316
        42        1.0000           -0.3024941              -8.2313 (HOMO)
        43                         -0.2215641              -6.0291 (LUMO)
        44                         -0.2208684              -6.0101
        45                         -0.1995573              -5.4302
        46                         -0.1393590              -3.7922
        47                         -0.0963310              -2.6213
       ...                                ...                  ...
        83                          0.6329334              17.2230
      -------------------------------------------------------------
                  HL-Gap            0.0809300 Eh            2.2022 eV
             Fermi-level           -0.3043139 Eh           -8.2808 eV

 SCC (total)                   0 d,  0 h,  0 min,  0.025 sec
 SCC setup                      ...        0 min,  0.000 sec (  0.546%)
 Dispersion                     ...        0 min,  0.000 sec (  1.158%)
 classical contributions        ...        0 min,  0.000 sec (  0.217%)
 integral evaluation            ...        0 min,  0.001 sec (  5.755%)
 iterations                     ...        0 min,  0.019 sec ( 77.501%)
 molecular gradient             ...        0 min,  0.003 sec ( 13.768%)
 printout                       ...        0 min,  0.000 sec (  1.015%)

         :::::::::::::::::::::::::::::::::::::::::::::::::::::
         ::                     SUMMARY                     ::
         :::::::::::::::::::::::::::::::::::::::::::::::::::::
         :: total energy             -43.866500006882 Eh    ::
         :: gradient norm              0.072374805640 Eh/a0 ::
         :: HOMO-LUMO gap              2.202216231706 eV    ::
         ::.................................................::
         :: SCC energy               -44.603254798804 Eh    ::
         :: -> isotropic ES            0.004107620950 Eh    ::
         :: -> anisotropic ES          0.009488531631 Eh    ::
         :: -> anisotropic XC          0.030006833595 Eh    ::
         :: -> dispersion             -0.034916354501 Eh    ::
         :: repulsion energy           0.736754791922 Eh    ::
         :: add. restraining           0.000000000000 Eh    ::
         :: total charge               0.000000000000 e     ::
         :::::::::::::::::::::::::::::::::::::::::::::::::::::

      ----------------------------------------------------------- 
     |                   =====================                   |
     |                        A N C O P T                        |
     |                   =====================                   |
     |               Approximate Normal Coordinate               |
     |                Rational Function Optimizer                |
      ----------------------------------------------------------- 
      ----------------------------------------------------------- 
     |                   =====================                   |
     |                        A N C O P T                        |
     |                   =====================                   |
     |               Approximate Normal Coordinate               |
     |                Rational Function Optimizer                |
      ----------------------------------------------------------- 

          ...................................................
          :                      SETUP                      :
          :.................................................:
          :   optimization level            normal          :
          :   max. optcycles                   200          :
          :   ANC micro-cycles                  20          :
          :   degrees of freedom                99          :
          :.................................................:
          :   RF solver                   davidson          :
          :   write xtbopt.log                true          :
          :   linear?                        false          :
          :   energy convergence         0.5000000E-05 Eh   :
          :   grad. convergence          0.1000000E-02 Eh/α :
          :   maxmium RF displ.          1.0000000          :
          :   Hlow (freq-cutoff)         0.1000000E-01      :
          :   Hmax (freq-cutoff)         5.0000000          :
          :   S6 in model hess.         20.0000000          :
          ...................................................

generating ANC from exact Hessian ...
Using Lindh-Hessian (1995)
 Shifting diagonal of input Hessian by    9.5770131560210282E-003
 Lowest  eigenvalues of input Hessian
    0.000000    0.000000    0.000000    0.000000    0.000000    0.000000
    0.010000    0.010488    0.010592    0.011390    0.012259    0.012775
    0.013440    0.015368    0.016558    0.017879    0.018346    0.019076
 Highest eigenvalues
    1.683164    1.817610    1.825173    1.890293    1.927147    1.937462


........................................................................
.............................. CYCLE    1 ..............................
........................................................................

 iter      E             dE          RMSdq      gap      omega  full diag
   1    -44.6037002 -0.446037E+02  0.110E-04    2.20       0.0  T
   2    -44.6037002 -0.359890E-10  0.746E-05    2.20     226.7  T
   3    -44.6037002 -0.375167E-10  0.507E-05    2.20     333.7  T
     SCC iter.                  ...        0 min,  0.003 sec
     gradient                   ...        0 min,  0.003 sec
 * total energy  :   -43.8665000 Eh     change       -0.1050445E-08 Eh
   gradient norm :     0.0723753 Eh/α   predicted     0.0000000E+00 (-100.00%)
   displ. norm   :     0.3408407 α      lambda       -0.1256955E-01
   maximum displ.:     0.1373903 α      in ANC's #22, #15, #10, ...

........................................................................
.............................. CYCLE    2 ..............................
........................................................................

 iter      E             dE          RMSdq      gap      omega  full diag
   1    -44.6435254 -0.446435E+02  0.244E-01    2.24       0.0  T
   2    -44.6435417 -0.162881E-04  0.146E-01    2.24       1.0  T
   3    -44.6434835  0.581473E-04  0.410E-02    2.21       1.0  T
   4    -44.6435497 -0.661413E-04  0.755E-03    2.22       2.2  T
   5    -44.6435512 -0.148786E-05  0.328E-03    2.22       5.1  T
   6    -44.6435513 -0.962691E-07  0.126E-03    2.22      13.4  T
   7    -44.6435513 -0.199812E-07  0.486E-04    2.22      34.8  T
   8    -44.6435513 -0.460788E-08  0.167E-04    2.22     101.4  T
     SCC iter.                  ...        0 min,  0.007 sec
     gradient                   ...        0 min,  0.003 sec
 * total energy  :   -43.8751994 Eh     change       -0.8699351E-02 Eh
   gradient norm :     0.0331668 Eh/α   predicted    -0.7016457E-02 ( -19.35%)
   displ. norm   :     0.3240644 α      lambda       -0.4155096E-02
   maximum displ.:     0.1408164 α      in ANC's #15, #10, #8, ...

........................................................................
.............................. CYCLE    3 ..............................
........................................................................

 iter      E             dE          RMSdq      gap      omega  full diag
   1    -44.6632694 -0.446633E+02  0.191E-01    2.22       0.0  T
   2    -44.6632783 -0.893639E-05  0.115E-01    2.22       1.0  T
   3    -44.6632538  0.245309E-04  0.273E-02    2.21       1.0  T
   4    -44.6632824 -0.286564E-04  0.436E-03    2.22       3.9  T
   5    -44.6632828 -0.321160E-06  0.227E-03    2.22       7.4  T
   6    -44.6632828 -0.476235E-07  0.993E-04    2.22      17.0  T
   7    -44.6632828 -0.296211E-07  0.272E-04    2.22      62.2  T
     SCC iter.                  ...        0 min,  0.006 sec
     gradient                   ...        0 min,  0.003 sec
 * total energy  :   -43.8776265 Eh     change       -0.2427111E-02 Eh
   gradient norm :     0.0093187 Eh/α   predicted    -0.2297137E-02 (  -5.36%)
   displ. norm   :     0.1860607 α      lambda       -0.6300145E-03
   maximum displ.:     0.0865145 α      in ANC's #10, #8, #15, ...

........................................................................
.............................. CYCLE    4 ..............................
........................................................................

 iter      E             dE          RMSdq      gap      omega  full diag
   1    -44.6633264 -0.446633E+02  0.908E-02    2.20       0.0  T
   2    -44.6633275 -0.109723E-05  0.553E-02    2.20       1.0  T
   3    -44.6632990  0.284965E-04  0.259E-02    2.19       1.0  T
   4    -44.6633307 -0.317173E-04  0.171E-03    2.19       9.9  T
   5    -44.6633308 -0.531561E-07  0.833E-04    2.19      20.3  T
   6    -44.6633308 -0.452921E-08  0.316E-04    2.19      53.5  T
     SCC iter.                  ...        0 min,  0.005 sec
     gradient                   ...        0 min,  0.003 sec
 * total energy  :   -43.8780435 Eh     change       -0.4170135E-03 Eh
   gradient norm :     0.0057385 Eh/α   predicted    -0.3259235E-03 ( -21.84%)
   displ. norm   :     0.1539679 α      lambda       -0.2371171E-03
   maximum displ.:     0.0866316 α      in ANC's #2, #8, #10, ...

........................................................................
.............................. CYCLE    5 ..............................
........................................................................

 iter      E             dE          RMSdq      gap      omega  full diag
   1    -44.6630340 -0.446630E+02  0.545E-02    2.18       0.0  T
   2    -44.6630344 -0.381532E-06  0.325E-02    2.18       1.0  T
   3    -44.6630286  0.583146E-05  0.122E-02    2.18       1.4  T
   4    -44.6630350 -0.643474E-05  0.113E-03    2.18      15.0  T
   5    -44.6630350 -0.330722E-07  0.498E-04    2.18      33.9  T
   6    -44.6630350 -0.107417E-08  0.265E-04    2.18      63.7  T
     SCC iter.                  ...        0 min,  0.005 sec
     gradient                   ...        0 min,  0.003 sec
 * total energy  :   -43.8781948 Eh     change       -0.1513505E-03 Eh
   gradient norm :     0.0025692 Eh/α   predicted    -0.1213765E-03 ( -19.80%)
   displ. norm   :     0.1172898 α      lambda       -0.8729343E-04
   maximum displ.:     0.0784527 α      in ANC's #2, #4, #8, ...

........................................................................
.............................. CYCLE    6 ..............................
........................................................................

 iter      E             dE          RMSdq      gap      omega  full diag
   1    -44.6630322 -0.446630E+02  0.274E-02    2.18       0.0  T
   2    -44.6630324 -0.137564E-06  0.162E-02    2.18       1.0  T
   3    -44.6630315  0.856304E-06  0.477E-03    2.18       3.5  T
   4    -44.6630325 -0.943421E-06  0.682E-04    2.18      24.8  T
   5    -44.6630325 -0.156408E-07  0.257E-04    2.18      65.7  T
     SCC iter.                  ...        0 min,  0.004 sec
     gradient                   ...        0 min,  0.003 sec
 * total energy  :   -43.8782651 Eh     change       -0.7029314E-04 Eh
   gradient norm :     0.0022760 Eh/α   predicted    -0.4426070E-04 ( -37.03%)
   displ. norm   :     0.1829939 α      lambda       -0.1158915E-03
   maximum displ.:     0.1149801 α      in ANC's #2, #4, #3, ...

........................................................................
.............................. CYCLE    7 ..............................
........................................................................

 iter      E             dE          RMSdq      gap      omega  full diag
   1    -44.6631093 -0.446631E+02  0.418E-02    2.18       0.0  T
   2    -44.6631094 -0.189273E-06  0.246E-02    2.18       1.0  T
   3    -44.6631085  0.901310E-06  0.502E-03    2.18       3.4  T
   4    -44.6631095 -0.100197E-05  0.802E-04    2.18      21.1  T
   5    -44.6631096 -0.182783E-07  0.362E-04    2.18      46.7  T
   6    -44.6631096 -0.510695E-09  0.174E-04    2.18      97.1  T
     SCC iter.                  ...        0 min,  0.005 sec
     gradient                   ...        0 min,  0.003 sec
 * total energy  :   -43.8783638 Eh     change       -0.9869818E-04 Eh
   gradient norm :     0.0034672 Eh/α   predicted    -0.5988751E-04 ( -39.32%)
   displ. norm   :     0.2968782 α      lambda       -0.1678875E-03
   maximum displ.:     0.1797032 α      in ANC's #2, #4, #3, ...

........................................................................
.............................. CYCLE    8 ..............................
........................................................................

 iter      E             dE          RMSdq      gap      omega  full diag
   1    -44.6628728 -0.446629E+02  0.703E-02    2.19       0.0  T
   2    -44.6628732 -0.400123E-06  0.413E-02    2.19       1.0  T
   3    -44.6628716  0.169574E-05  0.691E-03    2.19       2.4  T
   4    -44.6628735 -0.191337E-05  0.114E-03    2.19      14.8  T
   5    -44.6628735 -0.284501E-07  0.567E-04    2.19      29.8  T
   6    -44.6628735 -0.193489E-08  0.257E-04    2.19      65.7  T
     SCC iter.                  ...        0 min,  0.005 sec
     gradient                   ...        0 min,  0.003 sec
 * total energy  :   -43.8785019 Eh     change       -0.1380574E-03 Eh
   gradient norm :     0.0043765 Eh/α   predicted    -0.9134481E-04 ( -33.84%)
   displ. norm   :     0.3651531 α      lambda       -0.1749696E-03
   maximum displ.:     0.2206865 α      in ANC's #2, #4, #3, ...

........................................................................
.............................. CYCLE    9 ..............................
........................................................................

 iter      E             dE          RMSdq      gap      omega  full diag
   1    -44.6623674 -0.446624E+02  0.872E-02    2.20       0.0  T
   2    -44.6623680 -0.568309E-06  0.513E-02    2.20       1.0  T
   3    -44.6623659  0.213154E-05  0.787E-03    2.20       2.1  T
   4    -44.6623683 -0.242663E-05  0.137E-03    2.20      12.3  T
   5    -44.6623683 -0.383534E-07  0.683E-04    2.20      24.8  T
   6    -44.6623683 -0.353213E-08  0.297E-04    2.20      56.9  T
     SCC iter.                  ...        0 min,  0.005 sec
     gradient                   ...        0 min,  0.003 sec
 * total energy  :   -43.8786338 Eh     change       -0.1319047E-03 Eh
   gradient norm :     0.0043623 Eh/α   predicted    -0.9915259E-04 ( -24.83%)
   displ. norm   :     0.2973912 α      lambda       -0.1277193E-03
   maximum displ.:     0.1841587 α      in ANC's #2, #3, #4, ...

........................................................................
.............................. CYCLE   10 ..............................
........................................................................

 iter      E             dE          RMSdq      gap      omega  full diag
   1    -44.6628575 -0.446629E+02  0.732E-02    2.20       0.0  T
   2    -44.6628579 -0.385911E-06  0.431E-02    2.20       1.0  T
   3    -44.6628571  0.811345E-06  0.514E-03    2.20       3.3  T
   4    -44.6628580 -0.966222E-06  0.115E-03    2.20      14.7  T
   5    -44.6628581 -0.284562E-07  0.559E-04    2.20      30.2  T
   6    -44.6628581 -0.247292E-08  0.219E-04    2.20      77.2  T
     SCC iter.                  ...        0 min,  0.005 sec
     gradient                   ...        0 min,  0.003 sec
 * total energy  :   -43.8787290 Eh     change       -0.9525892E-04 Eh
   gradient norm :     0.0027055 Eh/α   predicted    -0.6951237E-04 ( -27.03%)
   displ. norm   :     0.2503286 α      lambda       -0.9120535E-04
   maximum displ.:     0.1524711 α      in ANC's #2, #3, #1, ...

........................................................................
.............................. CYCLE   11 ..............................
........................................................................

 iter      E             dE          RMSdq      gap      omega  full diag
   1    -44.6637248 -0.446637E+02  0.618E-02    2.20       0.0  T
   2    -44.6637251 -0.287776E-06  0.363E-02    2.21       1.0  T
   3    -44.6637244  0.711309E-06  0.465E-03    2.20       3.6  T
   4    -44.6637252 -0.836234E-06  0.102E-03    2.21      16.6  T
   5    -44.6637252 -0.222849E-07  0.483E-04    2.21      35.0  T
   6    -44.6637252 -0.125182E-08  0.192E-04    2.21      88.0  T
     SCC iter.                  ...        0 min,  0.005 sec
     gradient                   ...        0 min,  0.003 sec
 * total energy  :   -43.8787968 Eh     change       -0.6776293E-04 Eh
   gradient norm :     0.0016041 Eh/α   predicted    -0.4846533E-04 ( -28.48%)
   displ. norm   :     0.3379423 α      lambda       -0.6329844E-04
   maximum displ.:     0.1907164 α      in ANC's #2, #3, #1, ...

........................................................................
.............................. CYCLE   12 ..............................
........................................................................

 iter      E             dE          RMSdq      gap      omega  full diag
   1    -44.6638704 -0.446639E+02  0.832E-02    2.20       0.0  T
   2    -44.6638709 -0.470011E-06  0.489E-02    2.21       1.0  T
   3    -44.6638691  0.172537E-05  0.681E-03    2.20       2.5  T
   4    -44.6638711 -0.199465E-05  0.124E-03    2.21      13.7  T
   5    -44.6638711 -0.238582E-07  0.619E-04    2.21      27.3  T
   6    -44.6638712 -0.162459E-08  0.265E-04    2.21      63.8  T
     SCC iter.                  ...        0 min,  0.005 sec
     gradient                   ...        0 min,  0.003 sec
 * total energy  :   -43.8788626 Eh     change       -0.6578907E-04 Eh
   gradient norm :     0.0024928 Eh/α   predicted    -0.3325627E-04 ( -49.45%)
   displ. norm   :     0.1404546 α      lambda       -0.4650738E-04
   maximum displ.:     0.0845000 α      in ANC's #3, #1, #2, ...

........................................................................
.............................. CYCLE   13 ..............................
........................................................................

 iter      E             dE          RMSdq      gap      omega  full diag
   1    -44.6648104 -0.446648E+02  0.352E-02    2.21       0.0  T
   2    -44.6648105 -0.104392E-06  0.207E-02    2.21       1.0  T
   3    -44.6648105  0.402075E-07  0.145E-03    2.21      11.6  T
   4    -44.6648106 -0.731835E-07  0.482E-04    2.21      35.1  T
   5    -44.6648106 -0.310772E-08  0.259E-04    2.21      65.4  T
     SCC iter.                  ...        0 min,  0.004 sec
     gradient                   ...        0 min,  0.003 sec
 * total energy  :   -43.8789011 Eh     change       -0.3848128E-04 Eh
   gradient norm :     0.0020961 Eh/α   predicted    -0.2371417E-04 ( -38.37%)
   displ. norm   :     0.3837853 α      lambda       -0.1037490E-03
   maximum displ.:     0.2340396 α      in ANC's #3, #1, #2, ...

........................................................................
.............................. CYCLE   14 ..............................
........................................................................

 iter      E             dE          RMSdq      gap      omega  full diag
   1    -44.6634830 -0.446635E+02  0.969E-02    2.20       0.0  T
   2    -44.6634837 -0.638454E-06  0.569E-02    2.21       1.0  T
   3    -44.6634829  0.794376E-06  0.512E-03    2.21       3.3  T
   4    -44.6634839 -0.104460E-05  0.141E-03    2.21      12.0  T
   5    -44.6634840 -0.317583E-07  0.758E-04    2.21      22.3  T
   6    -44.6634840 -0.470383E-08  0.319E-04    2.21      53.0  T
     SCC iter.                  ...        0 min,  0.005 sec
     gradient                   ...        0 min,  0.003 sec
 * total energy  :   -43.8789726 Eh     change       -0.7148396E-04 Eh
   gradient norm :     0.0025396 Eh/α   predicted    -0.5954233E-04 ( -16.71%)
   displ. norm   :     0.2787551 α      lambda       -0.7154776E-04
   maximum displ.:     0.1666165 α      in ANC's #3, #1, #6, ...

........................................................................
.............................. CYCLE   15 ..............................
........................................................................

 iter      E             dE          RMSdq      gap      omega  full diag
   1    -44.6636652 -0.446637E+02  0.716E-02    2.20       0.0  T
   2    -44.6636655 -0.310845E-06  0.420E-02    2.21       1.0  T
   3    -44.6636651  0.408130E-06  0.382E-03    2.21       4.4  T
   4    -44.6636657 -0.540998E-06  0.942E-04    2.21      17.9  T
   5    -44.6636657 -0.156404E-07  0.498E-04    2.21      34.0  T
     SCC iter.                  ...        0 min,  0.004 sec
     gradient                   ...        0 min,  0.003 sec
 * total energy  :   -43.8790232 Eh     change       -0.5060990E-04 Eh
   gradient norm :     0.0024380 Eh/α   predicted    -0.3855838E-04 ( -23.81%)
   displ. norm   :     0.2211911 α      lambda       -0.5173155E-04
   maximum displ.:     0.1242820 α      in ANC's #3, #1, #6, ...

........................................................................
.............................. CYCLE   16 ..............................
........................................................................

 iter      E             dE          RMSdq      gap      omega  full diag
   1    -44.6642044 -0.446642E+02  0.565E-02    2.21       0.0  T
   2    -44.6642046 -0.164323E-06  0.332E-02    2.21       1.0  T
   3    -44.6642042  0.336002E-06  0.320E-03    2.21       5.3  T
   4    -44.6642047 -0.420612E-06  0.746E-04    2.21      22.7  T
   5    -44.6642047 -0.923811E-08  0.387E-04    2.21      43.7  T
     SCC iter.                  ...        0 min,  0.004 sec
     gradient                   ...        0 min,  0.003 sec
 * total energy  :   -43.8790604 Eh     change       -0.3717795E-04 Eh
   gradient norm :     0.0020247 Eh/α   predicted    -0.2713154E-04 ( -27.02%)
   displ. norm   :     0.1964385 α      lambda       -0.3175793E-04
   maximum displ.:     0.1074745 α      in ANC's #3, #1, #6, ...

........................................................................
.............................. CYCLE   17 ..............................
........................................................................

 iter      E             dE          RMSdq      gap      omega  full diag
   1    -44.6641411 -0.446641E+02  0.492E-02    2.21       0.0  T
   2    -44.6641413 -0.129960E-06  0.289E-02    2.21       1.0  T
   3    -44.6641411  0.167421E-06  0.248E-03    2.21       6.8  T
   4    -44.6641413 -0.227197E-06  0.626E-04    2.21      27.0  T
   5    -44.6641413 -0.493814E-08  0.339E-04    2.21      49.9  T
     SCC iter.                  ...        0 min,  0.004 sec
     gradient                   ...        0 min,  0.003 sec
 * total energy  :   -43.8790808 Eh     change       -0.2041115E-04 Eh
   gradient norm :     0.0011035 Eh/α   predicted    -0.1649298E-04 ( -19.20%)
   displ. norm   :     0.1025783 α      lambda       -0.8675309E-05
   maximum displ.:     0.0555336 α      in ANC's #1, #3, #6, ...

........................................................................
.............................. CYCLE   18 ..............................
........................................................................

 iter      E             dE          RMSdq      gap      omega  full diag
   1    -44.6647142 -0.446647E+02  0.245E-02    2.21       0.0  T
   2    -44.6647142 -0.497667E-07  0.144E-02    2.21       1.2  T
   3    -44.6647142  0.187537E-07  0.101E-03    2.21      16.7  T
   4    -44.6647143 -0.337038E-07  0.368E-04    2.21      46.0  T
   5    -44.6647143 -0.180935E-08  0.197E-04    2.21      85.9  T
     SCC iter.                  ...        0 min,  0.004 sec
     gradient                   ...        0 min,  0.003 sec
 * total energy  :   -43.8790868 Eh     change       -0.6035813E-05 Eh
   gradient norm :     0.0008473 Eh/α   predicted    -0.4358691E-05 ( -27.79%)
   displ. norm   :     0.0800002 α      lambda       -0.4091505E-05
   maximum displ.:     0.0417959 α      in ANC's #1, #3, #2, ...

........................................................................
.............................. CYCLE   19 ..............................
........................................................................

 iter      E             dE          RMSdq      gap      omega  full diag
   1    -44.6637466 -0.446637E+02  0.193E-02    2.21       0.0  T
   2    -44.6637466 -0.489500E-07  0.113E-02    2.21       1.5  T
   3    -44.6637464  0.203862E-06  0.233E-03    2.21       7.2  T
   4    -44.6637467 -0.227919E-06  0.385E-04    2.21      44.0  T
   5    -44.6637467 -0.299458E-08  0.186E-04    2.21      90.6  T
     SCC iter.                  ...        0 min,  0.004 sec
     gradient                   ...        0 min,  0.003 sec
 * total energy  :   -43.8790882 Eh     change       -0.1417401E-05 Eh
   gradient norm :     0.0012694 Eh/α   predicted    -0.2052203E-05 (  44.79%)
   displ. norm   :     0.0587353 α      lambda       -0.5533397E-05
   maximum displ.:     0.0368090 α      in ANC's #3, #6, #4, ...

........................................................................
.............................. CYCLE   20 ..............................
........................................................................

 iter      E             dE          RMSdq      gap      omega  full diag
   1    -44.6644649 -0.446645E+02  0.182E-02    2.21       0.0  T
   2    -44.6644650 -0.306550E-07  0.107E-02    2.21       1.6  T
   3    -44.6644649  0.944904E-07  0.162E-03    2.21      10.4  T
   4    -44.6644650 -0.107948E-06  0.345E-04    2.21      49.0  T
   5    -44.6644650 -0.287465E-08  0.145E-04    2.21     116.8  T
     SCC iter.                  ...        0 min,  0.004 sec
     gradient                   ...        0 min,  0.003 sec
 * total energy  :   -43.8790925 Eh     change       -0.4312301E-05 Eh
   gradient norm :     0.0008128 Eh/α   predicted    -0.2774191E-05 ( -35.67%)
   displ. norm   :     0.0205880 α      lambda       -0.2066863E-05
   maximum displ.:     0.0122949 α      in ANC's #1, #4, #2, ...

   *** GEOMETRY OPTIMIZATION CONVERGED AFTER 20 ITERATIONS ***

------------------------------------------------------------------------
 total energy gain   :        -0.0125925 Eh       -7.9019 kcal/mol
 total RMSD          :         0.5410522 a0        0.2863 Å
 total power (kW/mol):        -1.6530829 (step) -166.6982 (real)
------------------------------------------------------------------------

 ANCopt (total)                0 d,  0 h,  0 min,  0.198 sec
 optimizer setup                ...        0 min,  0.000 sec (  0.030%)
 model hessian                  ...        0 min,  0.010 sec (  5.103%)
 ANC generation                 ...        0 min,  0.001 sec (  0.401%)
 coordinate transformation      ...        0 min,  0.000 sec (  0.059%)
 single point calculation       ...        0 min,  0.184 sec ( 92.952%)
 optimization log               ...        0 min,  0.001 sec (  0.654%)
 hessian update                 ...        0 min,  0.000 sec (  0.083%)
 rational function              ...        0 min,  0.001 sec (  0.498%)

================
 final structure:
================
35
 xtb: 6.7.1 (edcfbbe)
C            3.10732988997415        0.33833367575944       -2.44686675521504
C            2.50014456593788        1.11763128842316       -1.27236641855118
C            1.99072314037397        0.16110589946816       -0.23848526672510
C            2.83097896871373       -0.38220998606490        0.69060828038024
C            2.45971898690637       -1.48438324400699        1.46752531840613
C            1.26199969517101       -2.15727743560108        1.16910853471496
C            0.38411240979440       -1.64686855739656        0.27246954289590
C            0.56122177843271       -0.27246960764489       -0.28331229533356
C           -0.33646983601590        0.67774160540140        0.60761608065280
C           -0.21411501555465        2.15229763452968        0.23179318755843
C           -1.76846962824863        0.22157724444135        0.53452594299886
C           -2.51063337731066        0.35891473236358       -0.63326515278462
C           -3.82326336011393       -0.07204326220368       -0.69304440314570
C           -4.41713531683307       -0.65309460387936        0.41457615759596
C           -3.68704089722551       -0.80063647113419        1.58109339970978
C           -2.37443693409212       -0.36741073428199        1.63798233873440
H            3.47187839582741        1.02347629226510       -3.20902951755406
H            2.36070861036991       -0.31450391703069       -2.89406648379993
H            3.93568316836517       -0.27744648533379       -2.10476752276964
H            3.27050394629648        1.76257274329637       -0.84267769399493
H            1.69660102289447        1.74616401653998       -1.65531511261328
H            3.83814084682364        0.00451357957615        0.78315313767053
H            3.13558045156230       -1.87952725051872        2.20905420474002
H            1.06831655851859       -3.11371617195879        1.63460169312038
H           -0.52245343121798       -2.17264440867828        0.01426073069775
H            0.17087567768228       -0.20822623565183       -1.30489932527969
H            0.02057992306455        0.55665451696307        1.63554840422988
H            0.79124817760224        2.51498080954929        0.42769825637486
H           -0.45177717232889        2.31908587708894       -0.81566576019110
H           -0.91175022714536        2.73358314335190        0.83238412000238
H           -2.06228532527235        0.80393090036246       -1.50959862310090
H           -4.38530491632032        0.04399373309513       -1.60856629436947
H           -5.44211037519990       -0.99013407153674        0.36733514836311
H           -4.14097950693996       -1.25451610491090        2.45000301830042
H           -1.80832089449170       -0.48934914464297        2.55078912828349

 Bond Distances (Angstroems)
 ---------------------------
C1-C2=1.5347         C1-H17=1.0878        C1-H18=1.0879        C1-H19=1.0874        C2-C1=1.5347         C2-C3=1.4978         
C2-H20=1.0927        C2-H21=1.0897        C3-C2=1.4978         C3-C4=1.3654         C3-C8=1.4945         C4-C3=1.3654         
C4-C5=1.3986         C4-H22=1.0828        C5-C4=1.3986         C5-C6=1.4058         C5-H23=1.0783        C6-C5=1.4058         
C6-C7=1.3547         C6-H24=1.0812        C7-C6=1.3547         C7-C8=1.4931         C7-H25=1.0793        C8-C3=1.4945         
C8-C7=1.4931         C8-C9=1.5819         C8-H26=1.0955        C9-C8=1.5819         C9-C10=1.5266        C9-C11=1.5047        
C9-H27=1.0949        C10-C9=1.5266        C10-H28=1.0866       C10-H29=1.0870       C10-H30=1.0887       C11-C9=1.5047        
C11-C12=1.3905       C11-C16=1.3899       C12-C11=1.3905       C12-C13=1.3829       C12-H31=1.0803       C13-C12=1.3829       
C13-C14=1.3846       C13-H32=1.0805       C14-C13=1.3846       C14-C15=1.3840       C14-H33=1.0800       C15-C14=1.3840       
C15-C16=1.3834       C15-H34=1.0803       C16-C11=1.3899       C16-C15=1.3834       C16-H35=1.0810       H17-C1=1.0878        
H18-C1=1.0879        H19-C1=1.0874        H20-C2=1.0927        H21-C2=1.0897        H22-C4=1.0828        H23-C5=1.0783        
H24-C6=1.0812        H25-C7=1.0793        H26-C8=1.0955        H27-C9=1.0949        H28-C10=1.0866       H29-C10=1.0870       
H30-C10=1.0887       H31-C12=1.0803       H32-C13=1.0805       H33-C14=1.0800       H34-C15=1.0803       H35-C16=1.0810       
 C  H  Rav=1.0854 sigma=0.0053  Rmin=1.0783  Rmax=1.0955    19
 C  C  Rav=1.4396 sigma=0.0700  Rmin=1.3547  Rmax=1.5819    17

 selected bond angles (degree)
 --------------------
H17-C1-C2=110.42               H18-C1-C2=110.35               H18-C1-H17=108.66              H19-C1-C2=110.38               
H19-C1-H17=108.77              H19-C1-H18=108.20              C3-C2-C1=109.79                H20-C2-C1=108.77               
H20-C2-C3=110.20               H21-C2-C1=108.40               H21-C2-C3=111.11               H21-C2-H20=108.52              
C4-C3-C2=120.96                C8-C3-C2=119.33                C8-C3-C4=119.58                C5-C4-C3=121.88                
H22-C4-C3=119.24               H22-C4-C5=118.74               C6-C5-C4=119.04                H23-C5-C4=120.29               
H23-C5-C6=120.30               C7-C6-C5=120.81                H24-C6-C5=118.99               H24-C6-C7=120.14               
C8-C7-C6=121.09                H25-C7-C6=121.27               H25-C7-C8=117.32               C7-C8-C3=111.68                
C9-C8-C3=110.59                C9-C8-C7=106.02                H26-C8-C3=110.60               H26-C8-C7=111.03               
H26-C8-C9=106.72               C10-C9-C8=113.33               C11-C9-C8=109.31               C11-C9-C10=110.93              
H27-C9-C8=106.10               H27-C9-C10=108.17              H27-C9-C11=108.81              H28-C10-C9=110.62              
H29-C10-C9=111.59              H29-C10-H28=108.96             H30-C10-C9=109.18              H30-C10-H28=108.37             
H30-C10-H29=108.03             

 selected dihedral angles (degree)
 ---------------------------------
C3-C2-C1-H17=179.43           C3-C2-C1-H18= 59.28           C3-C2-C1-H19=299.74           H20-C2-C1-H17=300.08          
H20-C2-C1-H18=179.93          H20-C2-C1-H19= 60.39          H21-C2-C1-H17= 57.90          H21-C2-C1-H18=297.75          
H21-C2-C1-H19=178.20          C4-C3-C2-C1= 82.96            C4-C3-C2-H20=323.18           C4-C3-C2-H21=202.86           
C8-C3-C2-C1=267.04            C8-C3-C2-H20=147.26           C8-C3-C2-H21= 26.95           C5-C4-C3-C2=194.41            
C5-C4-C3-C8= 10.31            H22-C4-C3-C2= 10.07           H22-C4-C3-C8=185.97           C6-C5-C4-C3=  8.28            
C6-C5-C4-H22=192.60           H23-C5-C4-C3=181.34           H23-C5-C4-H22=  5.66          C7-C6-C5-C4=350.81            
C7-C6-C5-H23=177.75           H24-C6-C5-C4=168.19           H24-C6-C5-H23=355.13          C8-C7-C6-C5=351.36            
C8-C7-C6-H24=174.01           H25-C7-C6-C5=178.02           H25-C7-C6-H24=  0.67          C7-C8-C3-C2=150.37            
C7-C8-C3-C4=334.40            C9-C8-C3-C2=268.18            C9-C8-C3-C4= 92.21            H26-C8-C3-C2= 26.19           
H26-C8-C3-C4=210.22           C3-C8-C7-C6= 25.02            C3-C8-C7-H25=198.63           C9-C8-C7-C6=264.51            
C9-C8-C7-H25= 78.11           H26-C8-C7-C6=148.97           H26-C8-C7-H25=322.57          C10-C9-C8-C3= 55.35           
C10-C9-C8-C7=176.57           C10-C9-C8-H26=295.00          C11-C9-C8-C3=179.62           C11-C9-C8-C7=300.85           
C11-C9-C8-H26= 59.28          H27-C9-C8-C3=296.80           H27-C9-C8-C7= 58.02           H27-C9-C8-H26=176.45          
H28-C10-C9-C8=294.95          H28-C10-C9-C11=171.55         H28-C10-C9-H27= 52.29         H29-C10-C9-C8= 56.42          
H29-C10-C9-C11=293.03         H29-C10-C9-H27=173.77         H30-C10-C9-C8=175.77          H30-C10-C9-C11= 52.38         
H30-C10-C9-H27=293.12         
           -------------------------------------------------
          |                Final Singlepoint                |
           -------------------------------------------------

          ...................................................
          :                      SETUP                      :
          :.................................................:
          :  # basis functions                  83          :
          :  # atomic orbitals                  83          :
          :  # shells                           51          :
          :  # electrons                        83          :
          :  max. iterations                   250          :
          :  Hamiltonian                  GFN2-xTB          :
          :  restarted?                      false          :
          :  GBSA solvation                  false          :
          :  PC potential                    false          :
          :  electronic temp.          300.0000000     K    :
          :  accuracy                    1.0000000          :
          :  -> integral cutoff          0.2500000E+02      :
          :  -> integral neglect         0.1000000E-07      :
          :  -> SCF convergence          0.1000000E-05 Eh   :
          :  -> wf. convergence          0.1000000E-03 e    :
          :  Broyden damping             0.4000000          :
          :  net charge                          0          :
          :  unpaired electrons                  0          :
          ...................................................

 iter      E             dE          RMSdq      gap      omega  full diag
   1    -44.6644650 -0.446645E+02  0.671E-05    2.21       0.0  T
   2    -44.6644650 -0.165841E-10  0.502E-05    2.21     336.8  T
   3    -44.6644650 -0.719709E-10  0.236E-05    2.21     716.7  T

   *** convergence criteria satisfied after 3 iterations ***

         #    Occupation            Energy/Eh            Energy/eV
      -------------------------------------------------------------
         1        2.0000           -0.6427846             -17.4911
       ...           ...                  ...                  ...
        36        2.0000           -0.4157549             -11.3133
        37        2.0000           -0.4126388             -11.2285
        38        2.0000           -0.4056643             -11.0387
        39        2.0000           -0.4001080             -10.8875
        40        2.0000           -0.3930821             -10.6963
        41        2.0000           -0.3859179             -10.5014
        42        1.0000           -0.3006432              -8.1809 (HOMO)
        43                         -0.2193402              -5.9686 (LUMO)
        44                         -0.2181248              -5.9355
        45                         -0.2033062              -5.5322
        46                         -0.1259343              -3.4268
        47                         -0.0893695              -2.4319
       ...                                ...                  ...
        83                          0.6685022              18.1909
      -------------------------------------------------------------
                  HL-Gap            0.0813030 Eh            2.2124 eV
             Fermi-level           -0.3016361 Eh           -8.2079 eV

 SCC (total)                   0 d,  0 h,  0 min,  0.007 sec
 SCC setup                      ...        0 min,  0.000 sec (  0.807%)
 Dispersion                     ...        0 min,  0.000 sec (  1.333%)
 classical contributions        ...        0 min,  0.000 sec (  0.335%)
 integral evaluation            ...        0 min,  0.001 sec ( 14.005%)
 iterations                     ...        0 min,  0.003 sec ( 36.936%)
 molecular gradient             ...        0 min,  0.003 sec ( 43.064%)
 printout                       ...        0 min,  0.000 sec (  3.399%)

         :::::::::::::::::::::::::::::::::::::::::::::::::::::
         ::                     SUMMARY                     ::
         :::::::::::::::::::::::::::::::::::::::::::::::::::::
         :: total energy             -43.879092527551 Eh    ::
         :: gradient norm              0.000812845283 Eh/a0 ::
         :: HOMO-LUMO gap              2.212368131776 eV    ::
         ::.................................................::
         :: SCC energy               -44.664033167756 Eh    ::
         :: -> isotropic ES            0.004313848460 Eh    ::
         :: -> anisotropic ES          0.008850399476 Eh    ::
         :: -> anisotropic XC          0.028640386186 Eh    ::
         :: -> dispersion             -0.035928779172 Eh    ::
         :: repulsion energy           0.784940640205 Eh    ::
         :: add. restraining           0.000000000000 Eh    ::
         :: total charge               0.000000000000 e     ::
         :::::::::::::::::::::::::::::::::::::::::::::::::::::

           -------------------------------------------------
          |                Property Printout                |
           -------------------------------------------------

    * Orbital Energies and Occupations

         #    Occupation            Energy/Eh            Energy/eV
      -------------------------------------------------------------
         1        2.0000           -0.6427846             -17.4911
       ...           ...                  ...                  ...
        30        2.0000           -0.4544967             -12.3675
        31        2.0000           -0.4470031             -12.1636
        32        2.0000           -0.4407977             -11.9947
        33        2.0000           -0.4343770             -11.8200
        34        2.0000           -0.4313565             -11.7378
        35        2.0000           -0.4210805             -11.4582
        36        2.0000           -0.4157549             -11.3133
        37        2.0000           -0.4126388             -11.2285
        38        2.0000           -0.4056643             -11.0387
        39        2.0000           -0.4001080             -10.8875
        40        2.0000           -0.3930821             -10.6963
        41        2.0000           -0.3859179             -10.5014
        42        1.0000           -0.3006432              -8.1809 (HOMO)
        43                         -0.2193402              -5.9686 (LUMO)
        44                         -0.2181248              -5.9355
        45                         -0.2033062              -5.5322
        46                         -0.1259343              -3.4268
        47                         -0.0893695              -2.4319
        48                          0.0663494               1.8055
        49                          0.0888185               2.4169
        50                          0.1063554               2.8941
        51                          0.1107852               3.0146
        52                          0.1171585               3.1880
        53                          0.1241618               3.3786
       ...                                ...                  ...
        83                          0.6685022              18.1909
      -------------------------------------------------------------
                  HL-Gap            0.0813030 Eh            2.2124 eV
             Fermi-level           -0.3016361 Eh           -8.2079 eV

     #   Z          covCN         q      C6AA      α(0)
     1   6 C        3.754    -0.097    22.415     6.751
     2   6 C        3.805    -0.057    21.600     6.616
     3   6 C        2.962     0.001    28.003     8.680
     4   6 C        2.910    -0.041    29.026     8.834
     5   6 C        2.916    -0.044    29.094     8.845
     6   6 C        2.905    -0.034    28.855     8.808
     7   6 C        2.914    -0.042    29.054     8.839
     8   6 C        3.862    -0.015    20.809     6.487
     9   6 C        3.859    -0.015    20.799     6.486
    10   6 C        3.754    -0.100    22.460     6.758
    11   6 C        2.973     0.012    27.747     8.640
    12   6 C        2.925    -0.035    28.868     8.811
    13   6 C        2.919    -0.032    28.786     8.798
    14   6 C        2.920    -0.033    28.833     8.805
    15   6 C        2.919    -0.030    28.750     8.793
    16   6 C        2.926    -0.037    28.910     8.818
    17   1 H        0.925     0.035     2.511     2.478
    18   1 H        0.925     0.034     2.529     2.487
    19   1 H        0.925     0.036     2.498     2.471
    20   1 H        0.924     0.034     2.533     2.489
    21   1 H        0.925     0.039     2.468     2.457
    22   1 H        0.925     0.023     2.684     2.562
    23   1 H        0.926     0.022     2.704     2.571
    24   1 H        0.926     0.024     2.676     2.558
    25   1 H        0.926     0.022     2.705     2.572
    26   1 H        0.924     0.041     2.434     2.440
    27   1 H        0.924     0.036     2.497     2.471
    28   1 H        0.925     0.040     2.446     2.446
    29   1 H        0.925     0.037     2.487     2.466
    30   1 H        0.925     0.037     2.486     2.466
    31   1 H        0.926     0.028     2.608     2.525
    32   1 H        0.926     0.027     2.624     2.533
    33   1 H        0.926     0.028     2.622     2.532
    34   1 H        0.926     0.028     2.609     2.526
    35   1 H        0.926     0.027     2.630     2.536

 Mol. C6AA /au·bohr⁶  :      12655.319267
 Mol. C8AA /au·bohr⁸  :     299426.391227
 Mol. α(0) /au        :        177.355366


Wiberg/Mayer (AO) data.
largest (>0.10) Wiberg bond orders for each atom

 ---------------------------------------------------------------------------
     #   Z sym  total        # sym  WBO       # sym  WBO       # sym  WBO
 ---------------------------------------------------------------------------
     1   6 C    3.995 --     2 C    0.990    19 H    0.989    18 H    0.988
                            17 H    0.986
     2   6 C    3.997 --     3 C    1.024     1 C    0.990    20 H    0.972
                            21 H    0.971
     3   6 C    3.912 --     4 C    1.561     8 C    1.030     2 C    1.024
     4   6 C    3.991 --     3 C    1.561     5 C    1.343    22 H    0.965
     5   6 C    3.877 --     4 C    1.343     6 C    1.300    23 H    0.974
     6   6 C    3.992 --     7 C    1.638     5 C    1.300    24 H    0.967
     7   6 C    3.924 --     6 C    1.638     8 C    1.033    25 H    0.971
     8   6 C    3.994 --     7 C    1.033     3 C    1.030    26 H    0.949
                             9 C    0.880
     9   6 C    3.985 --    11 C    1.005    10 C    1.001    27 H    0.968
                             8 C    0.880
    10   6 C    3.996 --     9 C    1.001    28 H    0.984    30 H    0.983
                            29 H    0.982
    11   6 C    3.988 --    16 C    1.408    12 C    1.407     9 C    1.005
                            14 C    0.109
    12   6 C    3.991 --    13 C    1.449    11 C    1.407    31 H    0.967
                            15 C    0.110
    13   6 C    3.992 --    12 C    1.449    14 C    1.435    32 H    0.971
                            16 C    0.110
    14   6 C    3.989 --    15 C    1.439    13 C    1.435    33 H    0.972
                            11 C    0.109
    15   6 C    3.992 --    16 C    1.445    14 C    1.439    34 H    0.971
                            12 C    0.110
    16   6 C    3.992 --    15 C    1.445    11 C    1.408    35 H    0.969
                            13 C    0.110
    17   1 H    0.997 --     1 C    0.986
    18   1 H    0.999 --     1 C    0.988
    19   1 H    0.999 --     1 C    0.989
    20   1 H    0.998 --     2 C    0.972
    21   1 H    0.998 --     2 C    0.971
    22   1 H    0.999 --     4 C    0.965
    23   1 H    0.999 --     5 C    0.974
    24   1 H    0.999 --     6 C    0.967
    25   1 H    0.999 --     7 C    0.971
    26   1 H    0.998 --     8 C    0.949
    27   1 H    0.998 --     9 C    0.968
    28   1 H    0.998 --    10 C    0.984
    29   1 H    0.998 --    10 C    0.982
    30   1 H    0.997 --    10 C    0.983
    31   1 H    0.999 --    12 C    0.967
    32   1 H    0.999 --    13 C    0.971
    33   1 H    0.999 --    14 C    0.972
    34   1 H    0.999 --    15 C    0.971
    35   1 H    0.999 --    16 C    0.969
 ---------------------------------------------------------------------------

Topologies differ in total number of bonds
Writing topology from bond orders to xtbtopo.mol

molecular dipole:
                 x           y           z       tot (Debye)
 q only:        0.020       0.356      -0.232
   full:        0.002       0.331      -0.246       1.047
molecular quadrupole (traceless):
                xx          xy          yy          xz          yz          zz
 q only:       -0.674       1.702      -0.287      -1.048      -0.587       0.961
  q+dip:        1.740       4.087      -3.954       1.795      -4.267       2.214
   full:        0.203       2.477      -1.664      -0.102      -1.814       1.461

           -------------------------------------------------
          |                Geometry Summary                 |
           -------------------------------------------------

      molecular mass/u    :      211.3226486
   center of mass at/Å    :       -0.2101061      -0.1462430       0.1582805
  moments of inertia/u·Å² :        0.5057828E+03   0.1492974E+04   0.1727089E+04
rotational constants/cm⁻¹ :        0.3332979E-01   0.1129131E-01   0.9760722E-02

 * 31 selected distances

     #   Z          #   Z                                           value/Å
     1   6 C        2   6 C                                       1.5347411 (max)
     3   6 C        4   6 C                                       1.3654439
     4   6 C        5   6 C                                       1.3986495
     5   6 C        6   6 C                                       1.4058346
     6   6 C        7   6 C                                       1.3546827
     9   6 C       10   6 C                                       1.5266072
    11   6 C       12   6 C                                       1.3904694
    12   6 C       13   6 C                                       1.3828580
    13   6 C       14   6 C                                       1.3846040
    14   6 C       15   6 C                                       1.3840409
    11   6 C       16   6 C                                       1.3898632
    15   6 C       16   6 C                                       1.3834198
     1   6 C       17   1 H                                       1.0877538
     1   6 C       18   1 H                                       1.0879467
     1   6 C       19   1 H                                       1.0873760
     2   6 C       20   1 H                                       1.0927194
     2   6 C       21   1 H                                       1.0896722
     4   6 C       22   1 H                                       1.0828181
     5   6 C       23   1 H                                       1.0783287 (min)
     6   6 C       24   1 H                                       1.0811902
     7   6 C       25   1 H                                       1.0793396
     8   6 C       26   1 H                                       1.0955079
     9   6 C       27   1 H                                       1.0948935
    10   6 C       28   1 H                                       1.0865879
    10   6 C       29   1 H                                       1.0869554
    10   6 C       30   1 H                                       1.0887137
    12   6 C       31   1 H                                       1.0802851
    13   6 C       32   1 H                                       1.0805257
    14   6 C       33   1 H                                       1.0800006
    15   6 C       34   1 H                                       1.0803107
    16   6 C       35   1 H                                       1.0810055

 * 2 distinct bonds (by element types)

   Z      Z             #   av. dist./Å        max./Å        min./Å
   1 H    6 C          19     1.0853648     1.0955079     1.0783287
   6 C    6 C          12     1.4084345     1.5347411     1.3546827


optimized geometry written to: xtbopt.xyz


           -------------------------------------------------
          | TOTAL ENERGY              -43.879092527551 Eh   |
          | GRADIENT NORM               0.000812845283 Eh/α |
          | HOMO-LUMO GAP               2.212368131776 eV   |
           -------------------------------------------------

------------------------------------------------------------------------
 * finished run on 2025/09/15 at 14:52:50.987     
------------------------------------------------------------------------
 total:
 * wall-time:     0 d,  0 h,  0 min,  0.250 sec
 *  cpu-time:     0 d,  0 h,  0 min,  0.981 sec
 * ratio c/w:     3.924 speedup
 SCF:
 * wall-time:     0 d,  0 h,  0 min,  0.025 sec
 *  cpu-time:     0 d,  0 h,  0 min,  0.095 sec
 * ratio c/w:     3.837 speedup
 ANC optimizer:
 * wall-time:     0 d,  0 h,  0 min,  0.206 sec
 *  cpu-time:     0 d,  0 h,  0 min,  0.824 sec
 * ratio c/w:     4.000 speedup

