35
 energy: -43.866500007933 gnorm: 0.072375319730 xtb: 6.7.1 (edcfbbe)
C            2.76180000000000        0.45210000000000       -2.56450000000000
C            2.56870000000000        1.11610000000000       -1.20690000000000
C            2.11970000000000        0.13140000000000       -0.15020000000000
C            3.02500000000000       -0.41860000000000        0.68560000000000
C            2.62050000000000       -1.50580000000000        1.54320000000000
C            1.43960000000000       -2.28010000000000        1.25540000000000
C            0.51150000000000       -1.73960000000000        0.45070000000000
C            0.64240000000000       -0.32550000000000       -0.13710000000000
C           -0.32650000000000        0.62550000000000        0.65410000000000
C           -0.20680000000000        2.11450000000000        0.30710000000000
C           -1.79270000000000        0.21160000000000        0.50370000000000
C           -2.43790000000000        0.23050000000000       -0.74300000000000
C           -3.77500000000000       -0.15460000000000       -0.85730000000000
C           -4.48380000000000       -0.56200000000000        0.27060000000000
C           -3.85700000000000       -0.58420000000000        1.51440000000000
C           -2.52030000000000       -0.19930000000000        1.63140000000000
H            3.12960000000000        1.18390000000000       -3.29110000000000
H            1.82240000000000        0.04310000000000       -2.94950000000000
H            3.49180000000000       -0.36230000000000       -2.50790000000000
H            3.51730000000000        1.58060000000000       -0.90870000000000
H            1.85760000000000        1.93760000000000       -1.31170000000000
H            4.07290000000000       -0.13720000000000        0.67810000000000
H            3.31810000000000       -1.87300000000000        2.28790000000000
H            1.32950000000000       -3.26960000000000        1.68330000000000
H           -0.39270000000000       -2.29670000000000        0.21980000000000
H            0.31900000000000       -0.40100000000000       -1.18320000000000
H           -0.06390000000000        0.54800000000000        1.71990000000000
H            0.76960000000000        2.51130000000000        0.60190000000000
H           -0.35170000000000        2.29780000000000       -0.76270000000000
H           -0.95950000000000        2.70380000000000        0.84470000000000
H           -1.90530000000000        0.54660000000000       -1.63670000000000
H           -4.26370000000000       -0.13570000000000       -1.82790000000000
H           -5.52450000000000       -0.86140000000000        0.18060000000000
H           -4.40850000000000       -0.90150000000000        2.39540000000000
H           -2.04740000000000       -0.22620000000000        2.61080000000000
35
 energy: -43.875199358529 gnorm: 0.033166788885 xtb: 6.7.1 (edcfbbe)
C            2.75646173455698        0.44819039999634       -2.56159376678806
C            2.54890970327756        1.11163714711186       -1.20034121952134
C            2.09145464080946        0.12620788765989       -0.15498056948325
C            2.99073351914855       -0.43642670884816        0.69060205481959
C            2.63840651937273       -1.52798243568341        1.52048428490138
C            1.43924054807184       -2.23803898142740        1.26291519043744
C            0.51037903701171       -1.70760949942903        0.43991432397655
C            0.63781997728151       -0.32015355198565       -0.14724777236960
C           -0.32522244898389        0.62043367245501        0.65600140899433
C           -0.20110684721714        2.10452488608088        0.29905179171712
C           -1.77536585334117        0.18681782174688        0.50120218063785
C           -2.42326560816257        0.21940251076630       -0.73227979100099
C           -3.75522440467447       -0.15162764956431       -0.84727822141242
C           -4.46578868651062       -0.55672907461047        0.27069122872085
C           -3.83972587243111       -0.57998383316808        1.50566172346012
C           -2.50717427188740       -0.21096312827945        1.61804410179329
H            3.12675380057843        1.17686061292326       -3.28375935484985
H            1.82345583324572        0.03745137339476       -2.94541318047093
H            3.48146670359806       -0.36256543087380       -2.49317614824941
H            3.49986114328168        1.55668534671637       -0.88634546270122
H            1.83395508577968        1.92708760090121       -1.31778176498302
H            4.02295939675231       -0.10720817464969        0.71618400679433
H            3.33507313357873       -1.89163232211682        2.26208390654621
H            1.31559720536292       -3.21783516928090        1.70303680958872
H           -0.39463847137099       -2.25373398963383        0.20575895309248
H            0.29212579880915       -0.35897132791663       -1.18716722748575
H           -0.05467361041906        0.51912326345005        1.71459949543408
H            0.77342994685903        2.49529738657201        0.59113706423862
H           -0.35373441059779        2.28416248810183       -0.76481833454323
H           -0.95929472226698        2.67242998745399        0.84212756146890
H           -1.89236462525535        0.53911838992454       -1.61924417305542
H           -4.24134335996301       -0.12887071539264       -1.81427169287245
H           -5.50315084835725       -0.85284796066112        0.18008702742891
H           -4.39007381439064       -0.89194832446327        2.38395065501045
H           -2.03613587154660       -0.23020249727056        2.59236491072569
35
 energy: -43.877626469310 gnorm: 0.009318921439 xtb: 6.7.1 (edcfbbe)
C            2.75363825039105        0.43902248545280       -2.55475639363027
C            2.53477885753805        1.11346849808020       -1.19547900983003
C            2.06662544351601        0.12983045848177       -0.16175926030444
C            2.95753834643625       -0.43207230050453        0.70420092077000
C            2.63718653059050       -1.53437580009662        1.50242408568848
C            1.43194644712782       -2.21021765981969        1.25798799458597
C            0.50346415696264       -1.69327783412268        0.41787278423734
C            0.63711174893413       -0.32509754003221       -0.16713979429288
C           -0.31732320294201        0.61263739301179        0.65738722676287
C           -0.20062478500786        2.09479162485822        0.30006318054617
C           -1.75792527856135        0.18111567834423        0.50394500262471
C           -2.40258841720240        0.21329738496162       -0.72638151842575
C           -3.73052457746457       -0.15447342798894       -0.84420030037643
C           -4.44500828006412       -0.55687806997320        0.26961606044786
C           -3.81867416862595       -0.58492189635465        1.50188355551585
C           -2.48961230468285       -0.21914057979452        1.61425715407147
H            3.12516901885731        1.16542543116737       -3.27437795367461
H            1.82402138330977        0.02494251830940       -2.93700161823505
H            3.47739462027206       -0.36780187017857       -2.47083701048040
H            3.48208413616734        1.55120206481303       -0.86897905090016
H            1.81449930545358        1.91994879045563       -1.33047070514972
H            3.97782396550505       -0.06602761061333        0.74254818051524
H            3.34523506376217       -1.91420077059352        2.22135393445481
H            1.27780911998579       -3.17227731072189        1.72966639458180
H           -0.41338696024179       -2.22386770040922        0.20668382338192
H            0.26307860503565       -0.32388026956229       -1.20028788511273
H           -0.03629602203219        0.49917150224795        1.71003537314727
H            0.77470128235902        2.48061792838359        0.58351717822523
H           -0.36121074145773        2.26377871710922       -0.76132044442389
H           -0.95965428968998        2.65335710458145        0.84614641267578
H           -1.86870293654359        0.53061618297648       -1.60987258134825
H           -4.21517886484061       -0.12143434675703       -1.80927948954939
H           -5.48299628960966       -0.84185976504409        0.17869875652653
H           -4.36997577073845       -0.88793150917581        2.37999443361760
H           -2.01462339249907       -0.24338750149205        2.58406056335708
35
 energy: -43.878043482853 gnorm: 0.005738784987 xtb: 6.7.1 (edcfbbe)
C            2.75649847819931        0.43235721442835       -2.55073945954189
C            2.52865799543882        1.11794156632201       -1.19712180461801
C            2.05935360870513        0.13351887073967       -0.16850132769120
C            2.94658925585530       -0.42298032783142        0.70758241227283
C            2.62938736763358       -1.53523054312537        1.49235588184576
C            1.41456811832510       -2.20029577713371        1.25992761851507
C            0.49043869752518       -1.68772812122954        0.41101994257526
C            0.63496328893398       -0.32498981481133       -0.18036765945307
C           -0.31311455270925        0.61199704175317        0.66035570128604
C           -0.19841020777491        2.09366858367914        0.30327850815697
C           -1.74829602681352        0.17545255900985        0.50821649038766
C           -2.38973963853441        0.20961318111215       -0.72440207770475
C           -3.71828891177679       -0.15421182785134       -0.84411838424732
C           -4.43505586915818       -0.55571651929125        0.26966086350559
C           -3.80951922290020       -0.58980914849860        1.50332247088806
C           -2.47905465077239       -0.22952092650407        1.61770687914246
H            3.12901700294193        1.15392939272141       -3.27426614352351
H            1.82867004014663        0.01232188933231       -2.93129034617993
H            3.48127060246771       -0.37228035596094       -2.45396347990375
H            3.47118679161718        1.55992736870522       -0.86680225650168
H            1.80507213699660        1.91951377302550       -1.34297021611819
H            3.95879229466527       -0.03417370749566        0.75598501407219
H            3.34446337740717       -1.92764187448936        2.19784046523939
H            1.24610121767920       -3.15692036246240        1.73736115726471
H           -0.43139523519174       -2.21243825810082        0.20871852439082
H            0.25010062519517       -0.31043633854910       -1.20919518340802
H           -0.02104810876982        0.49222798699492        1.70927464889142
H            0.77820181130993        2.48135184026313        0.57922802840615
H           -0.36756208309795        2.25898261309684       -0.75767347443101
H           -0.95562113187800        2.64966693166031        0.85372034483122
H           -1.85234855179805        0.52651550307611       -1.60650993755368
H           -4.19958619513969       -0.12156915696898       -1.81085125080150
H           -5.47288351384063       -0.83918345543238        0.17663031908660
H           -4.36052426479878       -0.89609623554995        2.38032449994540
H           -2.00108454608886       -0.25766356463398        2.58646323097387
35
 energy: -43.878194833360 gnorm: 0.002569594670 xtb: 6.7.1 (edcfbbe)
C            2.76344293058841        0.42436532603208       -2.54764712899533
C            2.52397657160827        1.12095667562765       -1.20111417448351
C            2.05489512124187        0.13728946799241       -0.17321215825677
C            2.93804975214464       -0.41446394129661        0.71098898263697
C            2.61622435825042       -1.53069509462625        1.48848363171653
C            1.40162150826002       -2.19611999367677        1.25483059101155
C            0.48122239633762       -1.68546047530400        0.40161985479760
C            0.63175094571255       -0.32263647397456       -0.19038336282665
C           -0.31067094848445        0.61524511756178        0.66224852041688
C           -0.19798670179080        2.09725224671169        0.30819788189469
C           -1.74372506557748        0.17741686381207        0.51397196499495
C           -2.38202144482422        0.21084661658058       -0.72109452058963
C           -3.70943829561797       -0.15620025818378       -0.84328477315803
C           -4.42630822974725       -0.55990497128761        0.27030585707080
C           -3.80178350656405       -0.59925448099942        1.50501410435360
C           -2.47180416428065       -0.23669982208570        1.62251411049178
H            3.13697360385706        1.13946788161546       -3.27726743575794
H            1.83888173831595       -0.00401415517370       -2.92789363974991
H            3.49065440825347       -0.37681020344831       -2.43735983378787
H            3.46092347397718        1.57223581139925       -0.86872467654169
H            1.79660838560066        1.91729839098704       -1.35837213291384
H            3.94487277668520       -0.01873864564362        0.76332201127626
H            3.33447104757476       -1.93339843403692        2.18511463474850
H            1.22256571293294       -3.14717688798613        1.73829023657051
H           -0.44529802612647       -2.20454452733266        0.20625880066172
H            0.24301825205763       -0.30096972583761       -1.21558961264956
H           -0.00781519450736        0.49044006198212        1.70749400745174
H            0.78093490450602        2.48501550629685        0.57668829548568
H           -0.37540024296236        2.26346392922705       -0.75172766606123
H           -0.95072700012443        2.65316727436140        0.86520921193435
H           -1.84182819242774        0.52802702093663       -1.60188381280139
H           -4.18858849508724       -0.12309398282821       -1.81132235487005
H           -5.46491668672429       -0.84030459622836        0.17593812522501
H           -4.35265911287448       -0.91030273981256        2.38069716839831
H           -1.99031658018339       -0.27159878136149        2.58988929230598
35
 energy: -43.878265126504 gnorm: 0.002276348091 xtb: 6.7.1 (edcfbbe)
C            2.77228346376069        0.41673203534721       -2.54593781704711
C            2.52119041060730        1.12167010740888       -1.20590333934707
C            2.05250494225054        0.13956437789311       -0.17646376560534
C            2.93308921872552       -0.41094386327756        0.71079083476781
C            2.60602143720256       -1.52663659081466        1.48746930131419
C            1.39227554306339       -2.19354058576226        1.25069656535426
C            0.47487598955775       -1.68286911210577        0.39481655993020
C            0.62876951990509       -0.31885619950940       -0.19539541885153
C           -0.30996859337599        0.61931577530538        0.66342306276817
C           -0.19767660279416        2.10182352044799        0.31239453964336
C           -1.74251616882545        0.18009234149681        0.51814021690716
C           -2.38013628212873        0.21399135980349       -0.71762131889873
C           -3.70639940893871       -0.15696896774092       -0.84111823308139
C           -4.42180044546662       -0.56446248097888        0.27213211709986
C           -3.79729844722367       -0.60707107864097        1.50677695901452
C           -2.46803054697332       -0.24124508038011        1.62588990804422
H            3.14611112036266        1.12731559576769       -3.27994197177252
H            1.85194073647487       -0.02001094969933       -2.92760944749211
H            3.50313601794416       -0.37983414622242       -2.42507621527512
H            3.45306632341425        1.58274475675287       -0.87167314162325
H            1.78932489244707        1.91239331985331       -1.37197159409483
H            3.93747126215410       -0.01217409014642        0.76852835493155
H            3.32247807562901       -1.93155460658691        2.18411479738892
H            1.21154858627723       -3.14423412888463        1.73157926746864
H           -0.45133997747082       -2.20048135519624        0.19624968845251
H            0.23988600581253       -0.29362585106955       -1.21901650414254
H           -0.00112000183779        0.49178937821776        1.70636462512984
H            0.78351284672376        2.48840223135054        0.57510442891401
H           -0.38179717758891        2.27167320567494       -0.74599247141128
H           -0.94564317867258        2.65814053855686        0.87593554763095
H           -1.83954555842464        0.53413642211891       -1.59714363619401
H           -4.18455771873554       -0.12491689167412       -1.80978600813902
H           -5.45993494865029       -0.84665771903401        0.17694198186696
H           -4.34718113371103       -0.92422680416544        2.38112194777986
H           -1.98474020149418       -0.27937446410644        2.59238017856887
35
 energy: -43.878363824684 gnorm: 0.003467411147 xtb: 6.7.1 (edcfbbe)
C            2.78905231485120        0.40492830260302       -2.54312593751303
C            2.51692148640044        1.12191699527704       -1.21369580324460
C            2.04863428086936        0.14365713423053       -0.18018256314746
C            2.92568342341053       -0.40576429464722        0.71062118034775
C            2.59200121743291       -1.52035116410381        1.48716009209074
C            1.38151471215629       -2.19094185324742        1.24153429542104
C            0.46796425732551       -1.67954954438782        0.38244050765359
C            0.62400825772105       -0.31242029207555       -0.20122361023959
C           -0.30976257253975        0.62515679728921        0.66474903362745
C           -0.19704288789589        2.10840252254057        0.31800270452586
C           -1.74237100198638        0.18445449469692        0.52338362910567
C           -2.38094881503779        0.22010796038956       -0.71201312782562
C           -3.70522574266989       -0.15762093340971       -0.83642917464049
C           -4.41705475972359       -0.57271600721080        0.27623186734043
C           -3.79161240538389       -0.61814853747978        1.51001954556411
C           -2.46381375160175       -0.24625297490097        1.63017540636129
H            3.16235243406026        1.11010621669294       -3.28268353954409
H            1.87699275739219       -0.04661582078643       -2.92842783836574
H            3.52734206167461       -0.38239643067246       -2.40597587339058
H            3.43999950912683        1.59933913708593       -0.87562584659653
H            1.77640861201530        1.90195153705933       -1.39411370263158
H            3.92883209395438       -0.00796502483068        0.77367389145579
H            3.30312949571410       -1.92458967645316        2.18907515665629
H            1.20008130090603       -3.14221701712831        1.71944372020156
H           -0.45631011402200       -2.19684358239102        0.17560256013809
H            0.23548778413926       -0.28141527940606       -1.22370821548772
H            0.00518666281981        0.49429816452540        1.70506633560279
H            0.78813322058167        2.49165806014445        0.57158249935329
H           -0.39180976091865        2.28472619166276       -0.73757503059492
H           -0.93690805889897        2.66535873434119        0.89222776289710
H           -1.84149363295705        0.54624481086676       -1.58988771193049
H           -4.18344291755017       -0.12612751511709       -1.80511188354943
H           -5.45411618881039       -0.85928925517445        0.18070987128205
H           -4.33948665158206       -0.94359299792069        2.38281295658306
H           -1.97852662097341       -0.28738885806254        2.59546684249397
35
 energy: -43.878501882097 gnorm: 0.004376653507 xtb: 6.7.1 (edcfbbe)
C            2.81886653588606        0.38656867797643       -2.53805842485293
C            2.51089288619505        1.12180000078528       -1.22602141077938
C            2.04193158299171        0.14992001316000       -0.18657589429282
C            2.91342874369030       -0.39837011294309        0.70963507285680
C            2.57119178323013       -1.51017144164855        1.48726571506996
C            1.36560181943181       -2.18541855222947        1.22753814905806
C            0.45805653093120       -1.67362522033940        0.36236569366202
C            0.61626906067429       -0.30202826305445       -0.21014410148324
C           -0.31034707551774        0.63310943124199        0.66593405242459
C           -0.19568320230215        2.11753251798556        0.32595514746175
C           -1.74345587699560        0.19150976830228        0.52996729763281
C           -2.38580529131460        0.23138715726093       -0.70334007445862
C           -3.70677084319298       -0.15745578230072       -0.82760827473921
C           -4.41145780664290       -0.58703848210516        0.28412071778292
C           -3.78288885826015       -0.63533995840132        1.51581601515341
C           -2.45788768065564       -0.25279740099756        1.63570752880802
H            3.19042728475980        1.08490009019490       -3.28496513149905
H            1.92152903443493       -0.09004813930926       -2.92957799564029
H            3.57009909589553       -0.38417746670714       -2.37480273351041
H            3.41907775280051        1.62431709410974       -0.88063147147034
H            1.75623373873710        1.88331377340373       -1.43052616485784
H            3.91659111387721       -0.00277661033415        0.78070562112329
H            3.27376255519340       -1.91124801658231        2.19963925232853
H            1.18569552433230       -3.13991715534147        1.69874846065631
H           -0.46147200457979       -2.19306146946595        0.14026570845453
H            0.22741326709629       -0.26103745508058       -1.23172701274583
H            0.01129429028393        0.49697209310649        1.70318382795387
H            0.79619722567118        2.49382535136398        0.56474460439684
H           -0.40724129539535        2.30323781715615       -0.72494534060600
H           -0.92222297715620        2.67549413367032        0.91680409583721
H           -1.85037443190879        0.56855852923555       -1.57935044709690
H           -4.18714824471089       -0.12461678026933       -1.79510070561584
H           -5.44610223987529       -0.88295669032353        0.18905137140383
H           -4.32635861297425       -0.97271475668789        2.38701349408092
H           -1.96954338463029       -0.29754669483249        2.59911335750316
35
 energy: -43.878633786785 gnorm: 0.004362493146 xtb: 6.7.1 (edcfbbe)
C            2.85789704007455        0.36516964065006       -2.53074052488284
C            2.50530041008077        1.12112521276804       -1.24069197520678
C            2.03270677624257        0.15842223150127       -0.19454388237526
C            2.89715619352188       -0.38805302119264        0.70921890331539
C            2.54681210786906       -1.49771799102606        1.48677856324739
C            1.34707730189560       -2.17751315510416        1.21027254709547
C            0.44669642593430       -1.66599719927795        0.33731131034102
C            0.60636196836852       -0.28936514103220       -0.22131990066813
C           -0.31214580680995        0.64175109145628        0.66635116418997
C           -0.19357149002693        2.12763739973677        0.33463531259090
C           -1.74570767384888        0.19959290209879        0.53597035810447
C           -2.39506030421264        0.24641276167802       -0.69333147939829
C           -3.71202953713987       -0.15587148698387       -0.81550467755976
C           -4.40634510875337       -0.60556649815850        0.29508967019975
C           -3.77208426020970       -0.65645388236834        1.52355749245107
C           -2.45073872165041       -0.26061028231537        1.64101937004907
H            3.22744226159259        1.05585414659269       -3.28564149108522
H            1.97960787197616       -0.14205054177054       -2.92887509771000
H            3.62415782712372       -0.38416098619635       -2.33574039855018
H            3.39497792913682        1.65092877079379       -0.88623593122071
H            1.73619992278353        1.86027291479897       -1.47573507461045
H            3.90187284514860        0.00287854097725        0.78659337078920
H            3.23961116795605       -1.89438931735033        2.21171037635106
H            1.16852224305499       -3.13609697543212        1.67503005006997
H           -0.46660854983579       -2.18949434191429        0.09808296082185
H            0.21609671445536       -0.23599369449053       -1.24215729449707
H            0.01541551080667        0.49846926210533        1.70076819587984
H            0.80620916615686        2.49423883003692        0.55579414894925
H           -0.42433548314962        2.32332080666902       -0.71043562501337
H           -0.90382930435350        2.68673798323395        0.94427733795226
H           -1.86706474882997        0.59841828787900       -1.56808457766396
H           -4.19707286879078       -0.11960032688348       -1.78044100532003
H           -5.43713108192226       -0.91553457869051        0.20143358438436
H           -4.30830954708533       -1.00793824335843        2.39375322125173
H           -1.95828719755943       -0.30872311943113        2.60203099772833
35
 energy: -43.878729045709 gnorm: 0.002705748330 xtb: 6.7.1 (edcfbbe)
C            2.89143381801075        0.34966416923265       -2.52334719858496
C            2.50388331528350        1.11976142886292       -1.25200580174251
C            2.02491142090868        0.16482377919896       -0.20218827494212
C            2.88325621358559       -0.38003868481242        0.70837578730079
C            2.52740858874105       -1.48739136791574        1.48624774044410
C            1.33191421592718       -2.16954495580235        1.19784769601527
C            0.43757969850445       -1.65910731860034        0.31778789075430
C            0.59795006138798       -0.27939663724313       -0.23121110399201
C           -0.31481785959725        0.64788652738533        0.66487576079104
C           -0.19150579031175        2.13477189596438        0.33935127352447
C           -1.74889367869425        0.20640038792672        0.53883705857343
C           -2.40657512207295        0.26050159777189       -0.68560989544446
C           -3.72021694403259       -0.15318007532108       -0.80402206212177
C           -4.40381271838688       -0.62198756176505        0.30556591219454
C           -3.76261840619279       -0.67526062393931        1.53041843343377
C           -2.44470472863852       -0.26753714833376        1.64380806705489
H            3.26033841741868        1.03453711945864       -3.28355113158544
H            2.02925632149716       -0.18059960246197       -2.92533158033783
H            3.66760536198812       -0.38168195688139       -2.30379803709360
H            3.37884381406060        1.66702346712020       -0.89041460468262
H            1.72775663722038        1.84222528114168       -1.51158340397077
H            3.88991486251522        0.00804537884965        0.79009468898698
H            3.21334541850795       -1.88042725013857        2.22001952542097
H            1.15449050078710       -3.13157297093699        1.65767370619049
H           -0.47017027268529       -2.18688741350324        0.06639733497529
H            0.20588610147912       -0.21702490914517       -1.25144638184084
H            0.01594539525487        0.49861133440623        1.69762700278217
H            0.81401120002977        2.49252300197198        0.54726166787609
H           -0.43557692560049        2.33716922992732       -0.70095015037924
H           -0.88868465560898        2.69496042212600        0.96210258113023
H           -1.88752252870589        0.62611460119692       -1.56030709245345
H           -4.21160484073149       -0.11148312796305       -1.76552721393174
H           -5.43090743674369       -0.94454183522761        0.21420314717633
H           -4.29066057937444       -1.03848471540359        2.40069332187319
H           -1.94765887573070       -0.31877146714749        2.60230533660546
35
 energy: -43.878796808639 gnorm: 0.001604257107 xtb: 6.7.1 (edcfbbe)
C            2.92054547326634        0.33893104919034       -2.51519111828784
C            2.50442928933349        1.11922888047834       -1.25990870639195
C            2.01791625662381        0.16990612652609       -0.20905238551006
C            2.87112184451301       -0.37289226615377        0.70797647057534
C            2.51224791674307       -1.47962044741830        1.48487132480412
C            1.31937393844149       -2.16260100223979        1.18911304755492
C            0.42989918274566       -1.65376905677720        0.30307311165391
C            0.59078553963240       -0.27267705121009       -0.24084388226351
C           -0.31773037505794        0.65215938531826        0.66127223652797
C           -0.18968086241465        2.13947485948507        0.33935404120086
C           -1.75201784224954        0.21112303680230        0.53930124590576
C           -2.41909004903331        0.27342567147472       -0.67959349683070
C           -3.73051241114235       -0.14846212400228       -0.79272611708955
C           -4.40315412595062       -0.63457979099575        0.31606015211612
C           -3.75368123150751       -0.69235423610431        1.53666843768699
C           -2.43841719359223       -0.27572284046152        1.64463301072152
H            3.28946308924074        1.01934744370424       -3.27922623768919
H            2.07263883763576       -0.20997509302565       -2.92036524813281
H            3.70433232093753       -0.37648338381461       -2.27495910043974
H            3.36720331903686        1.67811980813069       -0.89050443255207
H            1.72543435383290        1.82921611562432       -1.54028807470293
H            3.87909031043878        0.01337107604771        0.79084313547993
H            3.19444803048360       -1.87109101875500        2.22283768838782
H            1.14093692402070       -3.12581962654542        1.64745973698982