      -----------------------------------------------------------      
     |                   =====================                   |     
     |                           x T B                           |     
     |                   =====================                   |     
     |                         S. Grimme                         |     
     |          Mulliken Center for Theoretical Chemistry        |     
     |                    University of Bonn                     |     
      -----------------------------------------------------------      

   * xtb version 6.7.1 (edcfbbe) compiled by 'conda@c0858423619e' on 2025-09-04

   xtb is free software: you can redistribute it and/or modify it under
   the terms of the GNU Lesser General Public License as published by
   the Free Software Foundation, either version 3 of the License, or
   (at your option) any later version.
   
   xtb is distributed in the hope that it will be useful,
   but WITHOUT ANY WARRANTY; without even the implied warranty of
   MERCHANTABILITY or FITNESS FOR A PARTICULAR PURPOSE.  See the
   GNU Lesser General Public License for more details.
   
   Cite this work as:
   * C. Bannwarth, E. Caldeweyher, S. Ehlert, A. Hansen, P. Pracht,
     J. Seibert, S. Spicher, S. Grimme, WIREs Comput. Mol. Sci., 2020, 11,
     e01493. DOI: 10.1002/wcms.1493
   
   for GFN2-xTB:
   * C. Bannwarth, S. Ehlert and S. Grimme., J. Chem. Theory Comput., 2019,
     15, 1652-1671. DOI: 10.1021/acs.jctc.8b01176
   for GFN1-xTB:
   * S. Grimme, C. Bannwarth, P. Shushkov, J. Chem. Theory Comput., 2017,
     13, 1989-2009. DOI: 10.1021/acs.jctc.7b00118
   for GFN0-xTB:
   * P. Pracht, E. Caldeweyher, S. Ehlert, S. Grimme, ChemRxiv, 2019, preprint.
     DOI: 10.26434/chemrxiv.8326202.v1
   for GFN-FF:
   * S. Spicher and S. Grimme, Angew. Chem. Int. Ed., 2020, 59, 15665-15673.
     DOI: 10.1002/anie.202004239
   
   for ALPB and GBSA implicit solvation:
   * S. Ehlert, M. Stahn, S. Spicher, S. Grimme, J. Chem. Theory Comput.,
     2021, 17, 4250-4261. DOI: 10.1021/acs.jctc.1c00471
   
   for ddCOSMO and CPCM-X implicit solvation:
   * M. Stahn, S. Ehlert, S. Grimme, J. Phys. Chem. A,
     2023, XX, XXXX-XXXX. DOI: 10.1021/acs.jpca.3c04382
   
   for DFT-D4:
   * E. Caldeweyher, C. Bannwarth and S. Grimme, J. Chem. Phys., 2017,
     147, 034112. DOI: 10.1063/1.4993215
   * E. Caldeweyher, S. Ehlert, A. Hansen, H. Neugebauer, S. Spicher,
     C. Bannwarth and S. Grimme, J. Chem. Phys., 2019, 150, 154122.
     DOI: 10.1063/1.5090222
   * E. Caldeweyher, J.-M. Mewes, S. Ehlert and S. Grimme, Phys. Chem. Chem. Phys.
     2020, 22, 8499-8512. DOI: 10.1039/D0CP00502A
   
   for sTDA-xTB:
   * S. Grimme and C. Bannwarth, J. Chem. Phys., 2016, 145, 054103.
     DOI: 10.1063/1.4959605
   
   in the mass-spec context:
   * V. Asgeirsson, C. Bauer and S. Grimme, Chem. Sci., 2017, 8, 4879.
     DOI: 10.1039/c7sc00601b
   * J. Koopman and S. Grimme, ACS Omega 2019, 4, 12, 15120-15133.
     DOI: 10.1021/acsomega.9b02011
   
   for metadynamics refer to:
   * S. Grimme, J. Chem. Theory Comput., 2019, 155, 2847-2862
     DOI: 10.1021/acs.jctc.9b00143
   
   for SPH calculations refer to:
   * S. Spicher and S. Grimme, J. Chem. Theory Comput., 2021, 17, 1701-1714
     DOI: 10.1021/acs.jctc.0c01306
   
   for ONIOM refer to:
   * C. Plett, A. Katbashev, S. Ehlert, S. Grimme, M. Bursch,
     Phys. Chem. Chem. Phys., 2023, 25, 17860-17868. DOI: 10.1039/D3CP02178E
   
   for DIPRO refer to:
   * J. Kohn, N. Gildemeister, S. Grimme, D. Fazzi, A. Hansen,
     J. Chem. Phys., 2023, just accepted.
   
   for PTB refer to:
   * S. Grimme, M. Mueller, A. Hansen, J. Chem. Phys., 2023, 158, 124111.
     DOI: 10.1063/5.0137838
   
   with help from (in alphabetical order)
   P. Atkinson, C. Bannwarth, F. Bohle, G. Brandenburg, E. Caldeweyher
   M. Checinski, S. Dohm, S. Ehlert, S. Ehrlich, I. Gerasimov, C. Hölzer
   A. Katbashev, J. Kohn, J. Koopman, C. Lavigne, S. Lehtola, F. März, M. Müller,
   F. Musil, H. Neugebauer, J. Pisarek, C. Plett, P. Pracht, F. Pultar,
   J. Seibert, P. Shushkov, S. Spicher, M. Stahn, M. Steiner, T. Strunk,
   J. Stückrath, T. Rose, and J. Unsleber
   
 * started run on 2025/09/15 at 14:52:50.225     
   ID    Z sym.   atoms
    1    6 C      1-16
    2    1 H      17-35

           -------------------------------------------------
          |                Calculation Setup                |
           -------------------------------------------------

          program call               : /home/paufv/miniforge3/envs/htvs/bin/xtb gfn_opt.xyz --opt normal --parallel 4 --chrg 0 --uhf 0 --gfn2 --input xtb.inp
          coordinate file            : gfn_opt.xyz
          omp threads                :                     4

########################################################################
[WARNING] Please study the warnings concerning your input carefully
-3- set_opt: the key 'uhf' is not recognized by opt
-2- set_opt: the key 'charge' is not recognized by opt
-1- set_opt: the key 'method' is not recognized by opt
########################################################################

           -------------------------------------------------
          |                 G F N 2 - x T B                 |
           -------------------------------------------------

        Reference                      10.1021/acs.jctc.8b01176
      * Hamiltonian:
        H0-scaling (s, p, d)           1.850000    2.230000    2.230000
        zeta-weighting                 0.500000
      * Dispersion:
        s8                             2.700000
        a1                             0.520000
        a2                             5.000000
        s9                             5.000000
      * Repulsion:
        kExp                           1.500000    1.000000
        rExp                           1.000000
      * Coulomb:
        alpha                          2.000000
        third order                    shell-resolved
        anisotropic                    true
        a3                             3.000000
        a5                             4.000000
        cn-shift                       1.200000
        cn-exp                         4.000000
        max-rad                        5.000000

q/qsh data taken from xtbrestart
CAMM data taken from xtbrestart

          ...................................................
          :                      SETUP                      :
          :.................................................:
          :  # basis functions                  83          :
          :  # atomic orbitals                  83          :
          :  # shells                           51          :
          :  # electrons                        83          :
          :  max. iterations                   250          :
          :  Hamiltonian                  GFN2-xTB          :
          :  restarted?                       true          :
          :  GBSA solvation                  false          :
          :  PC potential                    false          :
          :  electronic temp.          300.0000000     K    :
          :  accuracy                    1.0000000          :
          :  -> integral cutoff          0.2500000E+02      :
          :  -> integral neglect         0.1000000E-07      :
          :  -> SCF convergence          0.1000000E-05 Eh   :
          :  -> wf. convergence          0.1000000E-03 e    :
          :  Broyden damping             0.4000000          :
          :  net charge                          0          :
          :  unpaired electrons                  0          :
          ...................................................

 iter      E             dE          RMSdq      gap      omega  full diag
   1    -44.5977200 -0.445977E+02  0.452E+00    1.99       0.0  T
   2    -44.6015861 -0.386610E-02  0.267E+00    2.06       1.0  T
   3    -44.5718511  0.297350E-01  0.886E-01    2.12       1.0  T
   4    -44.6051516 -0.333005E-01  0.131E-01    2.17       1.0  T
   5    -44.6053638 -0.212293E-03  0.750E-02    2.14       1.0  T
   6    -44.6054077 -0.438307E-04  0.271E-02    2.15       1.0  T
   7    -44.6054192 -0.115278E-04  0.882E-03    2.15       1.9  T
   8    -44.6054209 -0.172019E-05  0.338E-03    2.15       5.0  T
   9    -44.6054210 -0.809631E-07  0.139E-03    2.15      12.2  T
  10    -44.6054210 -0.518213E-08  0.570E-04    2.15      29.6  T
  11    -44.6054210 -0.496004E-08  0.222E-04    2.15      76.1  T

   *** convergence criteria satisfied after 11 iterations ***

         #    Occupation            Energy/Eh            Energy/eV
      -------------------------------------------------------------
         1        2.0000           -0.6396635             -17.4061
       ...           ...                  ...                  ...
        36        2.0000           -0.4163716             -11.3300
        37        2.0000           -0.4112365             -11.1903
        38        2.0000           -0.4049389             -11.0189
        39        2.0000           -0.3994929             -10.8708
        40        2.0000           -0.3931704             -10.6987
        41        2.0000           -0.3895172             -10.5993
        42        1.0000           -0.3016688              -8.2088 (HOMO)
        43                         -0.2227496              -6.0613 (LUMO)
        44                         -0.2217830              -6.0350
        45                         -0.1997127              -5.4345
        46                         -0.1361557              -3.7050
        47                         -0.0974106              -2.6507
       ...                                ...                  ...
        83                          0.6319299              17.1957
      -------------------------------------------------------------
                  HL-Gap            0.0789192 Eh            2.1475 eV
             Fermi-level           -0.3039011 Eh           -8.2696 eV

 SCC (total)                   0 d,  0 h,  0 min,  0.028 sec
 SCC setup                      ...        0 min,  0.000 sec (  0.604%)
 Dispersion                     ...        0 min,  0.000 sec (  1.295%)
 classical contributions        ...        0 min,  0.000 sec (  0.223%)
 integral evaluation            ...        0 min,  0.002 sec (  7.129%)
 iterations                     ...        0 min,  0.022 sec ( 77.853%)
 molecular gradient             ...        0 min,  0.003 sec ( 11.989%)
 printout                       ...        0 min,  0.000 sec (  0.866%)

         :::::::::::::::::::::::::::::::::::::::::::::::::::::
         ::                     SUMMARY                     ::
         :::::::::::::::::::::::::::::::::::::::::::::::::::::
         :: total energy             -43.868053281862 Eh    ::
         :: gradient norm              0.072428617929 Eh/a0 ::
         :: HOMO-LUMO gap              2.147500112302 eV    ::
         ::.................................................::
         :: SCC energy               -44.604771507813 Eh    ::
         :: -> isotropic ES            0.004100660365 Eh    ::
         :: -> anisotropic ES          0.009493729237 Eh    ::
         :: -> anisotropic XC          0.029924134089 Eh    ::
         :: -> dispersion             -0.035803545792 Eh    ::
         :: repulsion energy           0.736718225951 Eh    ::
         :: add. restraining           0.000000000000 Eh    ::
         :: total charge              -0.000000000000 e     ::
         :::::::::::::::::::::::::::::::::::::::::::::::::::::

      ----------------------------------------------------------- 
     |                   =====================                   |
     |                        A N C O P T                        |
     |                   =====================                   |
     |               Approximate Normal Coordinate               |
     |                Rational Function Optimizer                |
      ----------------------------------------------------------- 
      ----------------------------------------------------------- 
     |                   =====================                   |
     |                        A N C O P T                        |
     |                   =====================                   |
     |               Approximate Normal Coordinate               |
     |                Rational Function Optimizer                |
      ----------------------------------------------------------- 

          ...................................................
          :                      SETUP                      :
          :.................................................:
          :   optimization level            normal          :
          :   max. optcycles                   200          :
          :   ANC micro-cycles                  20          :
          :   degrees of freedom                99          :
          :.................................................:
          :   RF solver                   davidson          :
          :   write xtbopt.log                true          :
          :   linear?                        false          :
          :   energy convergence         0.5000000E-05 Eh   :
          :   grad. convergence          0.1000000E-02 Eh/α :
          :   maxmium RF displ.          1.0000000          :
          :   Hlow (freq-cutoff)         0.1000000E-01      :
          :   Hmax (freq-cutoff)         5.0000000          :
          :   S6 in model hess.         20.0000000          :
          ...................................................

generating ANC from exact Hessian ...
Using Lindh-Hessian (1995)
 Shifting diagonal of input Hessian by    9.5607310983489829E-003
 Lowest  eigenvalues of input Hessian
    0.000000    0.000000    0.000000    0.000000    0.000000    0.000000
    0.010000    0.010286    0.010839    0.011550    0.012387    0.012730
    0.013558    0.015151    0.015902    0.017713    0.018122    0.019691
 Highest eigenvalues
    1.687809    1.821749    1.824728    1.896210    1.927282    1.938178


........................................................................
.............................. CYCLE    1 ..............................
........................................................................

 iter      E             dE          RMSdq      gap      omega  full diag
   1    -44.6054210 -0.446054E+02  0.111E-04    2.15       0.0  T
   2    -44.6054210 -0.824798E-10  0.697E-05    2.15     242.4  T
   3    -44.6054210 -0.750902E-10  0.428E-05    2.15     395.2  T
     SCC iter.                  ...        0 min,  0.003 sec
     gradient                   ...        0 min,  0.003 sec
 * total energy  :   -43.8680533 Eh     change       -0.2555538E-09 Eh
   gradient norm :     0.0724284 Eh/α   predicted     0.0000000E+00 (-100.00%)
   displ. norm   :     0.3533396 α      lambda       -0.1279193E-01
   maximum displ.:     0.1536330 α      in ANC's #22, #14, #9, ...

........................................................................
.............................. CYCLE    2 ..............................
........................................................................

 iter      E             dE          RMSdq      gap      omega  full diag
   1    -44.6455794 -0.446456E+02  0.225E-01    2.19       0.0  T
   2    -44.6455964 -0.169981E-04  0.136E-01    2.18       1.0  T
   3    -44.6455249  0.714999E-04  0.447E-02    2.16       1.0  T
   4    -44.6456062 -0.813320E-04  0.781E-03    2.17       2.2  T
   5    -44.6456077 -0.145487E-05  0.326E-03    2.17       5.2  T
   6    -44.6456078 -0.739240E-07  0.117E-03    2.17      14.5  T
   7    -44.6456078 -0.127475E-07  0.512E-04    2.17      33.0  T
   8    -44.6456078 -0.651877E-08  0.168E-04    2.17     100.5  T
     SCC iter.                  ...        0 min,  0.007 sec
     gradient                   ...        0 min,  0.003 sec
 * total energy  :   -43.8769268 Eh     change       -0.8873548E-02 Eh
   gradient norm :     0.0327564 Eh/α   predicted    -0.7196693E-02 ( -18.90%)
   displ. norm   :     0.3251511 α      lambda       -0.4139335E-02
   maximum displ.:     0.1563673 α      in ANC's #14, #9, #22, ...

........................................................................
.............................. CYCLE    3 ..............................
........................................................................

 iter      E             dE          RMSdq      gap      omega  full diag
   1    -44.6651610 -0.446652E+02  0.171E-01    2.17       0.0  T
   2    -44.6651697 -0.873889E-05  0.103E-01    2.17       1.0  T
   3    -44.6651032  0.665029E-04  0.426E-02    2.16       1.0  T
   4    -44.6651776 -0.744058E-04  0.622E-03    2.16       2.7  T
   5    -44.6651787 -0.109739E-05  0.236E-03    2.17       7.1  T
   6    -44.6651787 -0.393744E-07  0.903E-04    2.17      18.7  T
   7    -44.6651787 -0.142865E-07  0.297E-04    2.17      57.0  T
     SCC iter.                  ...        0 min,  0.006 sec
     gradient                   ...        0 min,  0.003 sec
 * total energy  :   -43.8793299 Eh     change       -0.2403093E-02 Eh
   gradient norm :     0.0087967 Eh/α   predicted    -0.2289710E-02 (  -4.72%)
   displ. norm   :     0.1777840 α      lambda       -0.5812521E-03
   maximum displ.:     0.0771147 α      in ANC's #14, #9, #11, ...

........................................................................
.............................. CYCLE    4 ..............................
........................................................................

 iter      E             dE          RMSdq      gap      omega  full diag
   1    -44.6650318 -0.446650E+02  0.870E-02    2.15       0.0  T
   2    -44.6650328 -0.100891E-05  0.518E-02    2.15       1.0  T
   3    -44.6650082  0.245872E-04  0.246E-02    2.15       1.0  T
   4    -44.6650356 -0.274251E-04  0.179E-03    2.15       9.5  T
   5    -44.6650357 -0.553969E-07  0.879E-04    2.15      19.2  T
   6    -44.6650357 -0.108969E-07  0.373E-04    2.15      45.3  T
     SCC iter.                  ...        0 min,  0.005 sec
     gradient                   ...        0 min,  0.003 sec
 * total energy  :   -43.8797145 Eh     change       -0.3845492E-03 Eh
   gradient norm :     0.0054169 Eh/α   predicted    -0.2998183E-03 ( -22.03%)
   displ. norm   :     0.1390899 α      lambda       -0.2094350E-03
   maximum displ.:     0.0604440 α      in ANC's #3, #2, #7, ...

........................................................................
.............................. CYCLE    5 ..............................
........................................................................

 iter      E             dE          RMSdq      gap      omega  full diag
   1    -44.6645588 -0.446646E+02  0.562E-02    2.14       0.0  T
   2    -44.6645593 -0.471330E-06  0.332E-02    2.14       1.0  T
   3    -44.6645533  0.605298E-05  0.128E-02    2.14       1.3  T
   4    -44.6645599 -0.667528E-05  0.134E-03    2.14      12.6  T
   5    -44.6645600 -0.488733E-07  0.552E-04    2.14      30.6  T
   6    -44.6645600 -0.264016E-08  0.253E-04    2.14      66.8  T
     SCC iter.                  ...        0 min,  0.005 sec
     gradient                   ...        0 min,  0.003 sec
 * total energy  :   -43.8798424 Eh     change       -0.1279067E-03 Eh
   gradient norm :     0.0022804 Eh/α   predicted    -0.1067520E-03 ( -16.54%)
   displ. norm   :     0.0804065 α      lambda       -0.4962152E-04
   maximum displ.:     0.0541622 α      in ANC's #3, #2, #7, ...

........................................................................
.............................. CYCLE    6 ..............................
........................................................................

 iter      E             dE          RMSdq      gap      omega  full diag
   1    -44.6646033 -0.446646E+02  0.268E-02    2.14       0.0  T
   2    -44.6646034 -0.112547E-06  0.158E-02    2.14       1.1  T
   3    -44.6646032  0.250119E-06  0.268E-03    2.14       6.3  T
   4    -44.6646034 -0.276941E-06  0.720E-04    2.14      23.5  T
   5    -44.6646035 -0.159152E-07  0.263E-04    2.14      64.3  T
     SCC iter.                  ...        0 min,  0.004 sec
     gradient                   ...        0 min,  0.003 sec
 * total energy  :   -43.8798789 Eh     change       -0.3650667E-04 Eh
   gradient norm :     0.0014001 Eh/α   predicted    -0.2498111E-04 ( -31.57%)
   displ. norm   :     0.1207924 α      lambda       -0.3610632E-04
   maximum displ.:     0.0883739 α      in ANC's #3, #2, #4, ...

........................................................................
.............................. CYCLE    7 ..............................
........................................................................

 iter      E             dE          RMSdq      gap      omega  full diag
   1    -44.6649162 -0.446649E+02  0.416E-02    2.14       0.0  T
   2    -44.6649163 -0.146594E-06  0.245E-02    2.14       1.0  T
   3    -44.6649161  0.182735E-06  0.250E-03    2.14       6.7  T
   4    -44.6649164 -0.223787E-06  0.761E-04    2.14      22.2  T
   5    -44.6649164 -0.134179E-07  0.326E-04    2.14      51.8  T
     SCC iter.                  ...        0 min,  0.004 sec
     gradient                   ...        0 min,  0.003 sec
 * total energy  :   -43.8799167 Eh     change       -0.3777941E-04 Eh
   gradient norm :     0.0018969 Eh/α   predicted    -0.1817057E-04 ( -51.90%)
   displ. norm   :     0.0923585 α      lambda       -0.2290540E-04
   maximum displ.:     0.0709801 α      in ANC's #3, #2, #4, ...

........................................................................
.............................. CYCLE    8 ..............................
........................................................................

 iter      E             dE          RMSdq      gap      omega  full diag
   1    -44.6650813 -0.446651E+02  0.350E-02    2.14       0.0  T
   2    -44.6650813 -0.802930E-07  0.206E-02    2.14       1.0  T
   3    -44.6650813  0.461899E-07  0.135E-03    2.14      12.5  T
   4    -44.6650814 -0.719270E-07  0.412E-04    2.14      41.1  T
   5    -44.6650814 -0.269317E-08  0.219E-04    2.14      77.0  T
     SCC iter.                  ...        0 min,  0.004 sec
     gradient                   ...        0 min,  0.003 sec
 * total energy  :   -43.8799444 Eh     change       -0.2773276E-04 Eh
   gradient norm :     0.0010804 Eh/α   predicted    -0.1149970E-04 ( -58.53%)
   displ. norm   :     0.1084873 α      lambda       -0.2301362E-04
   maximum displ.:     0.0815841 α      in ANC's #3, #2, #4, ...

........................................................................
.............................. CYCLE    9 ..............................
........................................................................

 iter      E             dE          RMSdq      gap      omega  full diag
   1    -44.6650762 -0.446651E+02  0.424E-02    2.14       0.0  T
   2    -44.6650763 -0.945169E-07  0.249E-02    2.14       1.0  T
   3    -44.6650762  0.131366E-06  0.210E-03    2.14       8.1  T
   4    -44.6650763 -0.166805E-06  0.534E-04    2.14      31.6  T
   5    -44.6650763 -0.671937E-08  0.259E-04    2.14      65.2  T
     SCC iter.                  ...        0 min,  0.004 sec
     gradient                   ...        0 min,  0.003 sec
 * total energy  :   -43.8799707 Eh     change       -0.2633188E-04 Eh
   gradient norm :     0.0009460 Eh/α   predicted    -0.1156868E-04 ( -56.07%)
   displ. norm   :     0.1088220 α      lambda       -0.1825765E-04
   maximum displ.:     0.0823997 α      in ANC's #3, #2, #4, ...

........................................................................
.............................. CYCLE   10 ..............................
........................................................................

 iter      E             dE          RMSdq      gap      omega  full diag
   1    -44.6649483 -0.446649E+02  0.427E-02    2.14       0.0  T
   2    -44.6649484 -0.851587E-07  0.250E-02    2.14       1.0  T
   3    -44.6649483  0.152978E-07  0.129E-03    2.14      13.1  T
   4    -44.6649484 -0.480643E-07  0.380E-04    2.14      44.5  T
   5    -44.6649484 -0.552483E-09  0.198E-04    2.14      85.3  T
     SCC iter.                  ...        0 min,  0.004 sec
     gradient                   ...        0 min,  0.003 sec
 * total energy  :   -43.8799913 Eh     change       -0.2061825E-04 Eh
   gradient norm :     0.0011177 Eh/α   predicted    -0.9181057E-05 ( -55.47%)
   displ. norm   :     0.0822134 α      lambda       -0.1073892E-04
   maximum displ.:     0.0651806 α      in ANC's #3, #2, #4, ...

........................................................................
.............................. CYCLE   11 ..............................
........................................................................

 iter      E             dE          RMSdq      gap      omega  full diag
   1    -44.6650471 -0.446650E+02  0.305E-02    2.14       0.0  T
   2    -44.6650472 -0.413485E-07  0.179E-02    2.14       1.0  T
   3    -44.6650471  0.905901E-07  0.178E-03    2.14       9.5  T
   4    -44.6650472 -0.113058E-06  0.366E-04    2.14      46.2  T
   5    -44.6650472 -0.193882E-08  0.212E-04    2.14      79.8  T
     SCC iter.                  ...        0 min,  0.004 sec
     gradient                   ...        0 min,  0.003 sec
 * total energy  :   -43.8800042 Eh     change       -0.1285627E-04 Eh
   gradient norm :     0.0005360 Eh/α   predicted    -0.5390220E-05 ( -58.07%)
   displ. norm   :     0.0616425 α      lambda       -0.7303227E-05
   maximum displ.:     0.0513407 α      in ANC's #3, #5, #2, ...

........................................................................
.............................. CYCLE   12 ..............................
........................................................................

 iter      E             dE          RMSdq      gap      omega  full diag
   1    -44.6650834 -0.446651E+02  0.223E-02    2.14       0.0  T
   2    -44.6650835 -0.210638E-07  0.131E-02    2.14       1.3  T
   3    -44.6650834  0.923202E-07  0.165E-03    2.14      10.3  T
   4    -44.6650835 -0.107631E-06  0.260E-04    2.14      64.9  T
   5    -44.6650835 -0.908173E-09  0.145E-04    2.14     116.2  T
     SCC iter.                  ...        0 min,  0.004 sec
     gradient                   ...        0 min,  0.003 sec
 * total energy  :   -43.8800130 Eh     change       -0.8768621E-05 Eh
   gradient norm :     0.0003968 Eh/α   predicted    -0.3659661E-05 ( -58.26%)
   displ. norm   :     0.0494376 α      lambda       -0.5553116E-05
   maximum displ.:     0.0412137 α      in ANC's #3, #5, #1, ...

........................................................................
.............................. CYCLE   13 ..............................
........................................................................

 iter      E             dE          RMSdq      gap      omega  full diag
   1    -44.6651598 -0.446652E+02  0.165E-02    2.14       0.0  T
   2    -44.6651598 -0.126298E-07  0.970E-03    2.14       1.7  T
   3    -44.6651598  0.138723E-07  0.741E-04    2.14      22.8  T
   4    -44.6651598 -0.202970E-07  0.193E-04    2.14      87.7  T
     SCC iter.                  ...        0 min,  0.003 sec
     gradient                   ...        0 min,  0.003 sec
 * total energy  :   -43.8800202 Eh     change       -0.7180602E-05 Eh
   gradient norm :     0.0004507 Eh/α   predicted    -0.2780535E-05 ( -61.28%)
   displ. norm   :     0.0511479 α      lambda       -0.5304385E-05
   maximum displ.:     0.0401878 α      in ANC's #3, #1, #5, ...

........................................................................
.............................. CYCLE   14 ..............................
........................................................................

 iter      E             dE          RMSdq      gap      omega  full diag
   1    -44.6651554 -0.446652E+02  0.160E-02    2.14       0.0  T
   2    -44.6651554 -0.105957E-07  0.942E-03    2.14       1.8  T
   3    -44.6651553  0.397269E-07  0.106E-03    2.14      16.0  T
   4    -44.6651554 -0.472985E-07  0.182E-04    2.14      92.7  T
   5    -44.6651554 -0.343462E-09  0.102E-04    2.14     166.3  T
     SCC iter.                  ...        0 min,  0.004 sec
     gradient                   ...        0 min,  0.003 sec
 * total energy  :   -43.8800273 Eh     change       -0.7097804E-05 Eh
   gradient norm :     0.0004404 Eh/α   predicted    -0.2656601E-05 ( -62.57%)
   displ. norm   :     0.0622224 α      lambda       -0.5977570E-05
   maximum displ.:     0.0457366 α      in ANC's #3, #1, #2, ...

........................................................................
.............................. CYCLE   15 ..............................
........................................................................

 iter      E             dE          RMSdq      gap      omega  full diag
   1    -44.6651736 -0.446652E+02  0.183E-02    2.14       0.0  T
   2    -44.6651736 -0.169506E-07  0.108E-02    2.14       1.6  T
   3    -44.6651736  0.110316E-07  0.660E-04    2.14      25.6  T
   4    -44.6651736 -0.185475E-07  0.193E-04    2.14      87.5  T
     SCC iter.                  ...        0 min,  0.004 sec
     gradient                   ...        0 min,  0.003 sec
 * total energy  :   -43.8800351 Eh     change       -0.7847940E-05 Eh
   gradient norm :     0.0004039 Eh/α   predicted    -0.2994610E-05 ( -61.84%)
   displ. norm   :     0.0765903 α      lambda       -0.6590863E-05
   maximum displ.:     0.0543275 α      in ANC's #3, #1, #2, ...

........................................................................
.............................. CYCLE   16 ..............................
........................................................................

 iter      E             dE          RMSdq      gap      omega  full diag
   1    -44.6651475 -0.446651E+02  0.220E-02    2.14       0.0  T
   2    -44.6651475 -0.243823E-07  0.129E-02    2.14       1.3  T
   3    -44.6651475  0.202304E-07  0.875E-04    2.14      19.3  T
   4    -44.6651475 -0.310356E-07  0.225E-04    2.14      75.0  T
     SCC iter.                  ...        0 min,  0.003 sec
     gradient                   ...        0 min,  0.003 sec
 * total energy  :   -43.8800437 Eh     change       -0.8570691E-05 Eh
   gradient norm :     0.0002732 Eh/α   predicted    -0.3304703E-05 ( -61.44%)
   displ. norm   :     0.0896452 α      lambda       -0.6779872E-05
   maximum displ.:     0.0627497 α      in ANC's #3, #1, #2, ...

........................................................................
.............................. CYCLE   17 ..............................
........................................................................

 iter      E             dE          RMSdq      gap      omega  full diag
   1    -44.6650969 -0.446651E+02  0.243E-02    2.14       0.0  T
   2    -44.6650969 -0.355608E-07  0.143E-02    2.14       1.2  T
   3    -44.6650969  0.250024E-07  0.963E-04    2.14      17.6  T
   4    -44.6650969 -0.397100E-07  0.252E-04    2.14      67.0  T
     SCC iter.                  ...        0 min,  0.003 sec
     gradient                   ...        0 min,  0.003 sec
 * total energy  :   -43.8800526 Eh     change       -0.8929493E-05 Eh
   gradient norm :     0.0002637 Eh/α   predicted    -0.3403097E-05 ( -61.89%)
   displ. norm   :     0.1119302 α      lambda       -0.7654434E-05
   maximum displ.:     0.0779880 α      in ANC's #3, #1, #2, ...

........................................................................
.............................. CYCLE   18 ..............................
........................................................................

 iter      E             dE          RMSdq      gap      omega  full diag
   1    -44.6650963 -0.446651E+02  0.295E-02    2.14       0.0  T
   2    -44.6650964 -0.524504E-07  0.173E-02    2.14       1.0  T
   3    -44.6650963  0.628135E-07  0.142E-03    2.14      11.9  T
   4    -44.6650964 -0.855290E-07  0.342E-04    2.14      49.4  T
   5    -44.6650964 -0.802835E-09  0.210E-04    2.14      80.6  T
     SCC iter.                  ...        0 min,  0.004 sec
     gradient                   ...        0 min,  0.003 sec
 * total energy  :   -43.8800627 Eh     change       -0.1010488E-04 Eh
   gradient norm :     0.0003342 Eh/α   predicted    -0.3849338E-05 ( -61.91%)
   displ. norm   :     0.1625218 α      lambda       -0.1020057E-04
   maximum displ.:     0.1128532 α      in ANC's #3, #1, #2, ...

........................................................................
.............................. CYCLE   19 ..............................
........................................................................

 iter      E             dE          RMSdq      gap      omega  full diag
   1    -44.6649484 -0.446649E+02  0.415E-02    2.14       0.0  T
   2    -44.6649486 -0.109217E-06  0.244E-02    2.15       1.0  T
   3    -44.6649484  0.116554E-06  0.197E-03    2.14       8.6  T
   4    -44.6649486 -0.164083E-06  0.462E-04    2.14      36.6  T
   5    -44.6649486 -0.814140E-09  0.259E-04    2.14      65.3  T
     SCC iter.                  ...        0 min,  0.004 sec
     gradient                   ...        0 min,  0.003 sec
 * total energy  :   -43.8800761 Eh     change       -0.1337911E-04 Eh
   gradient norm :     0.0004409 Eh/α   predicted    -0.5164365E-05 ( -61.40%)
   displ. norm   :     0.3327225 α      lambda       -0.1853723E-04
   maximum displ.:     0.2311163 α      in ANC's #3, #1, #2, ...

........................................................................
.............................. CYCLE   20 ..............................
........................................................................

 iter      E             dE          RMSdq      gap      omega  full diag
   1    -44.6643194 -0.446643E+02  0.840E-02    2.15       0.0  T
   2    -44.6643199 -0.451114E-06  0.494E-02    2.15       1.0  T
   3    -44.6643195  0.412094E-06  0.381E-03    2.15       4.4  T
   4    -44.6643201 -0.601215E-06  0.900E-04    2.15      18.8  T
   5    -44.6643201 -0.334659E-08  0.468E-04    2.15      36.1  T
     SCC iter.                  ...        0 min,  0.004 sec
     gradient                   ...        0 min,  0.003 sec
 * total energy  :   -43.8800978 Eh     change       -0.2175242E-04 Eh
   gradient norm :     0.0011915 Eh/α   predicted    -0.9725051E-05 ( -55.29%)
   displ. norm   :     0.3981246 α      lambda       -0.1960743E-04
   maximum displ.:     0.2757989 α      in ANC's #3, #1, #2, ...
 * RMSD in coord.:     0.3384654 α      energy gain  -0.1204455E-01 Eh

generating ANC from exact Hessian ...
Using Lindh-Hessian (1995)
 Shifting diagonal of input Hessian by    9.4791115431182415E-003
 Lowest  eigenvalues of input Hessian
    0.000000    0.000000    0.000000    0.000000    0.000000    0.000000
    0.010000    0.010231    0.010851    0.011727    0.012512    0.012869
    0.013896    0.015499    0.016644    0.018530    0.018617    0.020233
 Highest eigenvalues
    1.737542    1.893863    1.921721    1.958832    1.996990    2.025176


........................................................................
.............................. CYCLE   21 ..............................
........................................................................

 iter      E             dE          RMSdq      gap      omega  full diag
   1    -44.6636990 -0.446637E+02  0.991E-02    2.15       0.0  T
   2    -44.6636996 -0.613740E-06  0.582E-02    2.15       1.0  T
   3    -44.6636989  0.638984E-06  0.475E-03    2.15       3.6  T
   4    -44.6636998 -0.907237E-06  0.104E-03    2.15      16.3  T
   5    -44.6636999 -0.342713E-08  0.554E-04    2.15      30.5  T
   6    -44.6636999 -0.303777E-08  0.231E-04    2.15      73.1  T
     SCC iter.                  ...        0 min,  0.005 sec
     gradient                   ...        0 min,  0.003 sec
 * total energy  :   -43.8801186 Eh     change       -0.2076650E-04 Eh
   gradient norm :     0.0018681 Eh/α   predicted     0.0000000E+00 (-100.00%)
   displ. norm   :     0.0364270 α      lambda       -0.1591893E-04
   maximum displ.:     0.0230024 α      in ANC's #4, #6, #7, ...

........................................................................
.............................. CYCLE   22 ..............................
........................................................................

 iter      E             dE          RMSdq      gap      omega  full diag
   1    -44.6656743 -0.446657E+02  0.129E-02    2.15       0.0  T
   2    -44.6656743 -0.541827E-07  0.756E-03    2.15       2.2  T
   3    -44.6656740  0.322852E-06  0.314E-03    2.15       5.4  T
   4    -44.6656744 -0.361371E-06  0.454E-04    2.15      37.2  T
   5    -44.6656744 -0.447666E-08  0.187E-04    2.15      90.5  T
     SCC iter.                  ...        0 min,  0.004 sec
     gradient                   ...        0 min,  0.003 sec
 * total energy  :   -43.8801335 Eh     change       -0.1484828E-04 Eh
   gradient norm :     0.0004726 Eh/α   predicted    -0.8012307E-05 ( -46.04%)
   displ. norm   :     0.0544654 α      lambda       -0.8929536E-05
   maximum displ.:     0.0385295 α      in ANC's #4, #6, #1, ...

........................................................................
.............................. CYCLE   23 ..............................
........................................................................

 iter      E             dE          RMSdq      gap      omega  full diag
   1    -44.6660196 -0.446660E+02  0.151E-02    2.15       0.0  T
   2    -44.6660197 -0.167489E-07  0.892E-03    2.15       1.9  T
   3    -44.6660193  0.348127E-06  0.304E-03    2.15       5.6  T
   4    -44.6660197 -0.382073E-06  0.251E-04    2.15      67.5  T
   5    -44.6660197 -0.675264E-09  0.126E-04    2.15     134.5  T
     SCC iter.                  ...        0 min,  0.004 sec
     gradient                   ...        0 min,  0.003 sec
 * total energy  :   -43.8801445 Eh     change       -0.1106384E-04 Eh
   gradient norm :     0.0008152 Eh/α   predicted    -0.4502308E-05 ( -59.31%)
   displ. norm   :     0.0807728 α      lambda       -0.1086655E-04
   maximum displ.:     0.0557873 α      in ANC's #4, #6, #1, ...

........................................................................
.............................. CYCLE   24 ..............................
........................................................................

 iter      E             dE          RMSdq      gap      omega  full diag
   1    -44.6656491 -0.446656E+02  0.213E-02    2.15       0.0  T
   2    -44.6656491 -0.355184E-07  0.126E-02    2.15       1.3  T
   3    -44.6656488  0.344623E-06  0.305E-03    2.15       5.5  T
   4    -44.6656491 -0.380457E-06  0.360E-04    2.15      47.0  T
   5    -44.6656491 -0.166750E-08  0.181E-04    2.15      93.6  T
     SCC iter.                  ...        0 min,  0.004 sec
     gradient                   ...        0 min,  0.003 sec
 * total energy  :   -43.8801575 Eh     change       -0.1302063E-04 Eh
   gradient norm :     0.0005932 Eh/α   predicted    -0.5452747E-05 ( -58.12%)
   displ. norm   :     0.0885866 α      lambda       -0.9198722E-05
   maximum displ.:     0.0620603 α      in ANC's #4, #1, #6, ...

........................................................................
.............................. CYCLE   25 ..............................
........................................................................

 iter      E             dE          RMSdq      gap      omega  full diag
   1    -44.6652719 -0.446653E+02  0.203E-02    2.15       0.0  T
   2    -44.6652719 -0.282697E-07  0.120E-02    2.15       1.4  T
   3    -44.6652717  0.198796E-06  0.233E-03    2.15       7.2  T
   4    -44.6652719 -0.222178E-06  0.346E-04    2.15      48.8  T
   5    -44.6652719 -0.127660E-08  0.184E-04    2.15      91.7  T
     SCC iter.                  ...        0 min,  0.004 sec
     gradient                   ...        0 min,  0.003 sec
 * total energy  :   -43.8801688 Eh     change       -0.1121791E-04 Eh
   gradient norm :     0.0004260 Eh/α   predicted    -0.4615491E-05 ( -58.86%)
   displ. norm   :     0.0980814 α      lambda       -0.8938189E-05
   maximum displ.:     0.0667963 α      in ANC's #4, #1, #6, ...

........................................................................
.............................. CYCLE   26 ..............................
........................................................................

 iter      E             dE          RMSdq      gap      omega  full diag
   1    -44.6649853 -0.446650E+02  0.203E-02    2.15       0.0  T
   2    -44.6649853 -0.298278E-07  0.120E-02    2.15       1.4  T
   3    -44.6649852  0.998017E-07  0.167E-03    2.15      10.1  T
   4    -44.6649853 -0.115954E-06  0.348E-04    2.15      48.6  T
   5    -44.6649853 -0.141501E-08  0.184E-04    2.15      91.7  T
     SCC iter.                  ...        0 min,  0.004 sec
     gradient                   ...        0 min,  0.003 sec
 * total energy  :   -43.8801802 Eh     change       -0.1140365E-04 Eh
   gradient norm :     0.0006736 Eh/α   predicted    -0.4488915E-05 ( -60.64%)
   displ. norm   :     0.1533129 α      lambda       -0.1320498E-04
   maximum displ.:     0.1005502 α      in ANC's #4, #1, #5, ...

........................................................................
.............................. CYCLE   27 ..............................
........................................................................

 iter      E             dE          RMSdq      gap      omega  full diag
   1    -44.6646713 -0.446647E+02  0.286E-02    2.15       0.0  T
   2    -44.6646714 -0.608166E-07  0.170E-02    2.15       1.0  T
   3    -44.6646713  0.987618E-07  0.176E-03    2.15       9.6  T
   4    -44.6646714 -0.124401E-06  0.498E-04    2.15      33.9  T
   5    -44.6646714 -0.277625E-08  0.263E-04    2.15      64.2  T
     SCC iter.                  ...        0 min,  0.004 sec
     gradient                   ...        0 min,  0.003 sec
 * total energy  :   -43.8801960 Eh     change       -0.1583029E-04 Eh
   gradient norm :     0.0012238 Eh/α   predicted    -0.6673484E-05 ( -57.84%)
   displ. norm   :     0.2463520 α      lambda       -0.1799111E-04
   maximum displ.:     0.1586654 α      in ANC's #4, #1, #5, ...

........................................................................
.............................. CYCLE   28 ..............................
........................................................................

 iter      E             dE          RMSdq      gap      omega  full diag
   1    -44.6640749 -0.446641E+02  0.445E-02    2.15       0.0  T
   2    -44.6640751 -0.159061E-06  0.263E-02    2.16       1.0  T
   3    -44.6640748  0.240195E-06  0.275E-03    2.16       6.1  T
   4    -44.6640751 -0.302114E-06  0.781E-04    2.16      21.6  T
   5    -44.6640751 -0.715118E-08  0.415E-04    2.16      40.7  T
     SCC iter.                  ...        0 min,  0.004 sec
     gradient                   ...        0 min,  0.003 sec
 * total energy  :   -43.8802118 Eh     change       -0.1579898E-04 Eh
   gradient norm :     0.0023453 Eh/α   predicted    -0.9238901E-05 ( -41.52%)
   displ. norm   :     0.0590764 α      lambda       -0.1300072E-04
   maximum displ.:     0.0332520 α      in ANC's #4, #1, #2, ...

........................................................................
.............................. CYCLE   29 ..............................
........................................................................

 iter      E             dE          RMSdq      gap      omega  full diag
   1    -44.6644549 -0.446645E+02  0.104E-02    2.16       0.0  T
   2    -44.6644549 -0.263181E-07  0.616E-03    2.16       2.7  T
   3    -44.6644549  0.350459E-07  0.106E-03    2.16      16.0  T
   4    -44.6644549 -0.396510E-07  0.307E-04    2.16      55.0  T
   5    -44.6644549 -0.255906E-08  0.137E-04    2.16     123.3  T
     SCC iter.                  ...        0 min,  0.004 sec
     gradient                   ...        0 min,  0.003 sec
 * total energy  :   -43.8802228 Eh     change       -0.1104610E-04 Eh
   gradient norm :     0.0017389 Eh/α   predicted    -0.6525123E-05 ( -40.93%)
   displ. norm   :     0.2912630 α      lambda       -0.3247827E-04
   maximum displ.:     0.1568053 α      in ANC's #4, #2, #1, ...

........................................................................
.............................. CYCLE   30 ..............................
........................................................................

 iter      E             dE          RMSdq      gap      omega  full diag
   1    -44.6655200 -0.446655E+02  0.521E-02    2.16       0.0  T
   2    -44.6655202 -0.200380E-06  0.309E-02    2.16       1.0  T
   3    -44.6655200  0.205475E-06  0.265E-03    2.16       6.4  T
   4    -44.6655203 -0.292509E-06  0.769E-04    2.16      22.0  T
   5    -44.6655203 -0.706443E-09  0.393E-04    2.16      43.0  T
     SCC iter.                  ...        0 min,  0.004 sec
     gradient                   ...        0 min,  0.003 sec
 * total energy  :   -43.8802560 Eh     change       -0.3317963E-04 Eh
   gradient norm :     0.0010588 Eh/α   predicted    -0.1685269E-04 ( -49.21%)
   displ. norm   :     0.2892088 α      lambda       -0.2211126E-04
   maximum displ.:     0.1444508 α      in ANC's #4, #2, #1, ...

........................................................................
.............................. CYCLE   31 ..............................
........................................................................

 iter      E             dE          RMSdq      gap      omega  full diag
   1    -44.6649276 -0.446649E+02  0.502E-02    2.15       0.0  T
   2    -44.6649279 -0.254239E-06  0.297E-02    2.16       1.0  T
   3    -44.6649274  0.480456E-06  0.374E-03    2.16       4.5  T
   4    -44.6649280 -0.570339E-06  0.970E-04    2.16      17.4  T
   5    -44.6649280 -0.140547E-07  0.522E-04    2.16      32.4  T
     SCC iter.                  ...        0 min,  0.004 sec
     gradient                   ...        0 min,  0.003 sec
 * total energy  :   -43.8802781 Eh     change       -0.2207328E-04 Eh
   gradient norm :     0.0019319 Eh/α   predicted    -0.1146819E-04 ( -48.04%)
   displ. norm   :     0.2855583 α      lambda       -0.4544521E-04
   maximum displ.:     0.1603599 α      in ANC's #2, #3, #1, ...

........................................................................
.............................. CYCLE   32 ..............................
........................................................................

 iter      E             dE          RMSdq      gap      omega  full diag
   1    -44.6661609 -0.446662E+02  0.695E-02    2.15       0.0  T
   2    -44.6661614 -0.483281E-06  0.410E-02    2.15       1.0  T
   3    -44.6661604  0.989439E-06  0.526E-03    2.15       3.2  T
   4    -44.6661615 -0.114473E-05  0.142E-03    2.15      11.9  T
   5    -44.6661616 -0.429790E-07  0.623E-04    2.15      27.1  T
   6    -44.6661616 -0.186056E-08  0.324E-04    2.15      52.2  T
     SCC iter.                  ...        0 min,  0.005 sec
     gradient                   ...        0 min,  0.003 sec
 * total energy  :   -43.8803059 Eh     change       -0.2781950E-04 Eh
   gradient norm :     0.0023584 Eh/α   predicted    -0.2355248E-04 ( -15.34%)
   displ. norm   :     0.2400526 α      lambda       -0.3339980E-04
   maximum displ.:     0.1213292 α      in ANC's #2, #3, #4, ...

........................................................................
.............................. CYCLE   33 ..............................
........................................................................

 iter      E             dE          RMSdq      gap      omega  full diag
   1    -44.6646175 -0.446646E+02  0.485E-02    2.15       0.0  T
   2    -44.6646179 -0.350229E-06  0.287E-02    2.15       1.0  T
   3    -44.6646173  0.618385E-06  0.415E-03    2.15       4.1  T
   4    -44.6646180 -0.694644E-06  0.112E-03    2.15      15.0  T
   5    -44.6646180 -0.337898E-07  0.471E-04    2.15      35.9  T
   6    -44.6646180 -0.150408E-08  0.247E-04    2.15      68.3  T
     SCC iter.                  ...        0 min,  0.005 sec
     gradient                   ...        0 min,  0.003 sec
 * total energy  :   -43.8803226 Eh     change       -0.1671107E-04 Eh
   gradient norm :     0.0022430 Eh/α   predicted    -0.1766414E-04 (   5.70%)
   displ. norm   :     0.0458406 α      lambda       -0.2553579E-04
   maximum displ.:     0.0307886 α      in ANC's #5, #4, #6, ...

........................................................................
.............................. CYCLE   34 ..............................
........................................................................

 iter      E             dE          RMSdq      gap      omega  full diag
   1    -44.6652761 -0.446653E+02  0.165E-02    2.15       0.0  T
   2    -44.6652762 -0.767907E-07  0.969E-03    2.15       1.7  T
   3    -44.6652761  0.374474E-07  0.123E-03    2.16      13.7  T
   4    -44.6652762 -0.467321E-07  0.440E-04    2.16      38.5  T
   5    -44.6652762 -0.602337E-08  0.201E-04    2.16      84.2  T
     SCC iter.                  ...        0 min,  0.004 sec
     gradient                   ...        0 min,  0.003 sec
 * total energy  :   -43.8803407 Eh     change       -0.1811349E-04 Eh
   gradient norm :     0.0012325 Eh/α   predicted    -0.1279809E-04 ( -29.35%)
   displ. norm   :     0.2152345 α      lambda       -0.3089923E-04
   maximum displ.:     0.1413411 α      in ANC's #3, #2, #6, ...

........................................................................
.............................. CYCLE   35 ..............................
........................................................................

 iter      E             dE          RMSdq      gap      omega  full diag
   1    -44.6655399 -0.446655E+02  0.557E-02    2.16       0.0  T
   2    -44.6655402 -0.345499E-06  0.327E-02    2.16       1.0  T
   3    -44.6655397  0.539925E-06  0.391E-03    2.16       4.3  T
   4    -44.6655403 -0.645217E-06  0.933E-04    2.16      18.1  T
   5    -44.6655404 -0.202706E-07  0.414E-04    2.16      40.8  T
     SCC iter.                  ...        0 min,  0.004 sec
     gradient                   ...        0 min,  0.003 sec
 * total energy  :   -43.8803688 Eh     change       -0.2802698E-04 Eh
   gradient norm :     0.0019969 Eh/α   predicted    -0.1576804E-04 ( -43.74%)
   displ. norm   :     0.2065208 α      lambda       -0.1937364E-04
   maximum displ.:     0.1470385 α      in ANC's #3, #2, #6, ...

........................................................................
.............................. CYCLE   36 ..............................
........................................................................

 iter      E             dE          RMSdq      gap      omega  full diag
   1    -44.6650276 -0.446650E+02  0.525E-02    2.16       0.0  T
   2    -44.6650278 -0.198231E-06  0.309E-02    2.16       1.0  T
   3    -44.6650275  0.288352E-06  0.304E-03    2.16       5.6  T
   4    -44.6650279 -0.371604E-06  0.711E-04    2.16      23.8  T
   5    -44.6650279 -0.596703E-08  0.418E-04    2.16      40.4  T
     SCC iter.                  ...        0 min,  0.004 sec
     gradient                   ...        0 min,  0.003 sec
 * total energy  :   -43.8803894 Eh     change       -0.2060294E-04 Eh
   gradient norm :     0.0016202 Eh/α   predicted    -0.9872549E-05 ( -52.08%)
   displ. norm   :     0.0883525 α      lambda       -0.1435935E-04
   maximum displ.:     0.0762175 α      in ANC's #3, #4, #5, ...

........................................................................
.............................. CYCLE   37 ..............................
........................................................................

 iter      E             dE          RMSdq      gap      omega  full diag
   1    -44.6659867 -0.446660E+02  0.317E-02    2.16       0.0  T
   2    -44.6659868 -0.127260E-06  0.186E-02    2.16       1.0  T
   3    -44.6659867  0.148377E-06  0.225E-03    2.16       7.5  T
   4    -44.6659869 -0.181927E-06  0.725E-04    2.17      23.3  T
   5    -44.6659869 -0.123883E-07  0.313E-04    2.17      54.0  T
     SCC iter.                  ...        0 min,  0.004 sec
     gradient                   ...        0 min,  0.003 sec
 * total energy  :   -43.8803983 Eh     change       -0.8965856E-05 Eh
   gradient norm :     0.0013839 Eh/α   predicted    -0.7205145E-05 ( -19.64%)
   displ. norm   :     0.1873482 α      lambda       -0.1559914E-04
   maximum displ.:     0.1428196 α      in ANC's #3, #2, #1, ...

........................................................................
.............................. CYCLE   38 ..............................
........................................................................

 iter      E             dE          RMSdq      gap      omega  full diag
   1    -44.6650846 -0.446651E+02  0.488E-02    2.16       0.0  T
   2    -44.6650849 -0.270526E-06  0.287E-02    2.17       1.0  T
   3    -44.6650841  0.721611E-06  0.442E-03    2.17       3.8  T
   4    -44.6650850 -0.818173E-06  0.912E-04    2.17      18.5  T
   5    -44.6650850 -0.191688E-07  0.425E-04    2.17      39.7  T
     SCC iter.                  ...        0 min,  0.004 sec
     gradient                   ...        0 min,  0.003 sec
 * total energy  :   -43.8804126 Eh     change       -0.1426142E-04 Eh
   gradient norm :     0.0015828 Eh/α   predicted    -0.7923493E-05 ( -44.44%)
   displ. norm   :     0.0695962 α      lambda       -0.8002530E-05
   maximum displ.:     0.0653325 α      in ANC's #3, #1, #5, ...

........................................................................
.............................. CYCLE   39 ..............................
........................................................................

 iter      E             dE          RMSdq      gap      omega  full diag
   1    -44.6652424 -0.446652E+02  0.225E-02    2.17       0.0  T
   2    -44.6652424 -0.512241E-07  0.132E-02    2.17       1.3  T
   3    -44.6652424  0.214194E-07  0.999E-04    2.17      16.9  T
   4    -44.6652425 -0.357237E-07  0.297E-04    2.17      56.9  T
     SCC iter.                  ...        0 min,  0.003 sec
     gradient                   ...        0 min,  0.003 sec
 * total energy  :   -43.8804219 Eh     change       -0.9275554E-05 Eh
   gradient norm :     0.0013236 Eh/α   predicted    -0.4013798E-05 ( -56.73%)
   displ. norm   :     0.2062958 α      lambda       -0.1878057E-04
   maximum displ.:     0.1908590 α      in ANC's #3, #1, #5, ...

........................................................................
.............................. CYCLE   40 ..............................
........................................................................

 iter      E             dE          RMSdq      gap      omega  full diag
   1    -44.6651521 -0.446652E+02  0.638E-02    2.17       0.0  T
   2    -44.6651524 -0.273518E-06  0.374E-02    2.17       1.0  T
   3    -44.6651522  0.187872E-06  0.263E-03    2.17       6.4  T
   4    -44.6651525 -0.285658E-06  0.759E-04    2.17      22.3  T
   5    -44.6651525 -0.776716E-08  0.414E-04    2.17      40.9  T
     SCC iter.                  ...        0 min,  0.004 sec
     gradient                   ...        0 min,  0.003 sec
 * total energy  :   -43.8804398 Eh     change       -0.1797726E-04 Eh
   gradient norm :     0.0014546 Eh/α   predicted    -0.9571311E-05 ( -46.76%)
   displ. norm   :     0.1759506 α      lambda       -0.1015580E-04
   maximum displ.:     0.1621636 α      in ANC's #3, #1, #5, ...

........................................................................
.............................. CYCLE   41 ..............................
........................................................................

 iter      E             dE          RMSdq      gap      omega  full diag
   1    -44.6651926 -0.446652E+02  0.532E-02    2.17       0.0  T
   2    -44.6651928 -0.169795E-06  0.313E-02    2.17       1.0  T
   3    -44.6651925  0.212893E-06  0.263E-03    2.17       6.4  T
   4    -44.6651928 -0.291923E-06  0.694E-04    2.17      24.3  T
   5    -44.6651928 -0.457536E-08  0.404E-04    2.17      41.9  T
     SCC iter.                  ...        0 min,  0.004 sec
     gradient                   ...        0 min,  0.003 sec
 * total energy  :   -43.8804501 Eh     change       -0.1022107E-04 Eh
   gradient norm :     0.0012838 Eh/α   predicted    -0.5149627E-05 ( -49.62%)
   displ. norm   :     0.1591572 α      lambda       -0.8082326E-05
   maximum displ.:     0.1436567 α      in ANC's #3, #1, #4, ...

........................................................................
.............................. CYCLE   42 ..............................
........................................................................

 iter      E             dE          RMSdq      gap      omega  full diag
   1    -44.6653701 -0.446654E+02  0.476E-02    2.17       0.0  T
   2    -44.6653702 -0.137680E-06  0.280E-02    2.17       1.0  T
   3    -44.6653699  0.280090E-06  0.283E-03    2.17       6.0  T
   4    -44.6653703 -0.350468E-06  0.644E-04    2.17      26.2  T
   5    -44.6653703 -0.504983E-08  0.364E-04    2.17      46.4  T
     SCC iter.                  ...        0 min,  0.004 sec
     gradient                   ...        0 min,  0.003 sec
 * total energy  :   -43.8804582 Eh     change       -0.8166164E-05 Eh
   gradient norm :     0.0009083 Eh/α   predicted    -0.4088909E-05 ( -49.93%)
   displ. norm   :     0.0822323 α      lambda       -0.5963705E-05
   maximum displ.:     0.0624516 α      in ANC's #3, #1, #4, ...
 * RMSD in coord.:     0.4622998 α      energy gain  -0.3603904E-03 Eh

generating ANC from exact Hessian ...
Using Lindh-Hessian (1995)
 Shifting diagonal of input Hessian by    9.4597212959224436E-003
 Lowest  eigenvalues of input Hessian
    0.000000    0.000000    0.000000    0.000000    0.000000    0.000000
    0.010000    0.010249    0.010761    0.011744    0.012303    0.012932
    0.014036    0.015751    0.016733    0.018421    0.018570    0.019782
 Highest eigenvalues
    1.739345    1.896275    1.921183    1.958864    2.000156    2.027997


........................................................................
.............................. CYCLE   43 ..............................
........................................................................

 iter      E             dE          RMSdq      gap      omega  full diag
   1    -44.6659624 -0.446660E+02  0.223E-02    2.17       0.0  T
   2    -44.6659624 -0.311662E-07  0.131E-02    2.18       1.3  T
   3    -44.6659623  0.140390E-06  0.192E-03    2.18       8.8  T
   4    -44.6659624 -0.161527E-06  0.355E-04    2.18      47.6  T
   5    -44.6659624 -0.193176E-08  0.183E-04    2.18      92.4  T
     SCC iter.                  ...        0 min,  0.004 sec
     gradient                   ...        0 min,  0.003 sec
 * total energy  :   -43.8804647 Eh     change       -0.6459234E-05 Eh
   gradient norm :     0.0006841 Eh/α   predicted     0.0000000E+00 (-100.00%)
   displ. norm   :     0.0195708 α      lambda       -0.3374396E-05
   maximum displ.:     0.0102629 α      in ANC's #4, #1, #6, ...

........................................................................
.............................. CYCLE   44 ..............................
........................................................................

 iter      E             dE          RMSdq      gap      omega  full diag
   1    -44.6658850 -0.446659E+02  0.702E-03    2.17       0.0  T
   2    -44.6658850 -0.745995E-08  0.414E-03    2.17       4.1  T
   3    -44.6658850  0.355310E-07  0.996E-04    2.17      17.0  T
   4    -44.6658850 -0.399091E-07  0.193E-04    2.17      87.5  T
     SCC iter.                  ...        0 min,  0.003 sec
     gradient                   ...        0 min,  0.003 sec
 * total energy  :   -43.8804682 Eh     change       -0.3495710E-05 Eh
   gradient norm :     0.0002321 Eh/α   predicted    -0.1694083E-05 ( -51.54%)
   displ. norm   :     0.0396751 α      lambda       -0.3483134E-05
   maximum displ.:     0.0218385 α      in ANC's #4, #1, #6, ...

   *** GEOMETRY OPTIMIZATION CONVERGED AFTER 44 ITERATIONS ***

------------------------------------------------------------------------
 total energy gain   :        -0.0124149 Eh       -7.7905 kcal/mol
 total RMSD          :         0.7499828 a0        0.3969 Å
 total power (kW/mol):        -0.7408026 (step)  -74.3634 (real)
------------------------------------------------------------------------

 ANCopt (total)                0 d,  0 h,  0 min,  0.438 sec
 optimizer setup                ...        0 min,  0.000 sec (  0.014%)
 model hessian                  ...        0 min,  0.037 sec (  8.467%)
 ANC generation                 ...        0 min,  0.002 sec (  0.500%)
 coordinate transformation      ...        0 min,  0.000 sec (  0.060%)
 single point calculation       ...        0 min,  0.393 sec ( 89.570%)
 optimization log               ...        0 min,  0.003 sec (  0.636%)
 hessian update                 ...        0 min,  0.000 sec (  0.085%)
 rational function              ...        0 min,  0.002 sec (  0.444%)

================
 final structure:
================
35
 xtb: 6.7.1 (edcfbbe)
C           -2.26639632570256       -0.06845088889431        2.21446979569518
C           -1.23056443630239        0.72941898927241        1.41285549819790
C           -1.43217462335363        0.51801361031278       -0.05435320205626
C           -2.19504643908749        1.37400044361798       -0.79388865229409
C           -2.59091570276064        1.07337848895841       -2.10242019554638
C           -2.34201130229600       -0.21161962022399       -2.61016183431741
C           -1.57221837561310       -1.09202678296829       -1.92406501360136
C           -0.81313325417860       -0.67675215912743       -0.71012644831938
C            0.66347471633322       -0.31166641879933       -1.15327141808753
C            1.27763904857378       -1.41616286388850       -2.01529662530042
C            1.53845510535758       -0.02777803339921        0.03337149439936
C            1.99499636228046        1.26324308049220        0.27625567200089
C            2.81003035480141        1.53612414747512        1.36013267422899
C            3.18387120001102        0.51932245830782        2.22189060342449
C            2.73550471405328       -0.77060517137712        1.99170609427491
C            1.92063320700437       -1.04106589970143        0.90799669670748
H           -2.16713902855153       -1.13272217214849        2.01410809492906
H           -2.12642118251576        0.09695054941205        3.28018300441599
H           -3.27363291931970        0.23818429730004        1.94188855369487
H           -0.23247867534854        0.41213275899564        1.71752810481519
H           -1.34100126802604        1.78946564534201        1.65129725738134
H           -2.55883833732244        2.28552604567196       -0.33803027142942
H           -3.17616330359123        1.77938298826712       -2.66974339871355
H           -2.81348707765881       -0.51025785324872       -3.53631303583030
H           -1.43794791234876       -2.10272955786502       -2.27730918110277
H           -0.72787880424279       -1.50784863389675       -0.00119857023141
H            0.58474383367736        0.59644535146773       -1.75951874708191
H            2.33036080347590       -1.19925847358274       -2.18777769930808
H            1.20394138129833       -2.38540926941775       -1.52842848473212
H            0.77678909791498       -1.47295787333277       -2.97798460496231
H            1.70346716616674        2.06182320840772       -0.39123049987495
H            3.15532652347667        2.54524928690521        1.53229994419950
H            3.82082087846594        0.72985010889501        3.06828593613017
H            3.02202715959982       -1.56954141943935        2.66050993840756
H            1.57526741572895       -2.05175836778755        0.74623851988589

 Bond Distances (Angstroems)
 ---------------------------
C1-C2=1.5337         C1-H17=1.0875        C1-H18=1.0875        C1-H19=1.0876        C2-C1=1.5337         C2-C3=1.4960         
C2-H20=1.0907        C2-H21=1.0921        C3-C2=1.4960         C3-C4=1.3644         C3-C8=1.4969         C4-C3=1.3644         
C4-C5=1.3998         C4-H22=1.0821        C5-C4=1.3998         C5-C6=1.4039         C5-H23=1.0783        C6-C5=1.4039         
C6-C7=1.3559         C6-H24=1.0813        C7-C6=1.3559         C7-C8=1.4907         C7-H25=1.0790        C8-C3=1.4969         
C8-C7=1.4907         C8-C9=1.5843         C8-H26=1.0957        C9-C8=1.5843         C9-C10=1.5298        C9-C11=1.5014        
C9-H27=1.0947        C10-C9=1.5298        C10-H28=1.0886       C10-H29=1.0872       C10-H30=1.0867       C11-C9=1.5014        
C11-C12=1.3907       C11-C16=1.3920       C12-C11=1.3907       C12-C13=1.3833       C12-H31=1.0809       C13-C12=1.3833       
C13-C14=1.3843       C13-H32=1.0804       C14-C13=1.3843       C14-C15=1.3849       C14-H33=1.0800       C15-C14=1.3849       
C15-C16=1.3826       C15-H34=1.0806       C16-C11=1.3920       C16-C15=1.3826       C16-H35=1.0803       H17-C1=1.0875        
H18-C1=1.0875        H19-C1=1.0876        H20-C2=1.0907        H21-C2=1.0921        H22-C4=1.0821        H23-C5=1.0783        
H24-C6=1.0813        H25-C7=1.0790        H26-C8=1.0957        H27-C9=1.0947        H28-C10=1.0886       H29-C10=1.0872       
H30-C10=1.0867       H31-C12=1.0809       H32-C13=1.0804       H33-C14=1.0800       H34-C15=1.0806       H35-C16=1.0803       
 C  H  Rav=1.0853 sigma=0.0053  Rmin=1.0783  Rmax=1.0957    19
 C  C  Rav=1.4397 sigma=0.0701  Rmin=1.3559  Rmax=1.5843    17

 selected bond angles (degree)
 --------------------
H17-C1-C2=110.56               H18-C1-C2=110.25               H18-C1-H17=108.52              H19-C1-C2=110.35               
H19-C1-H17=108.32              H19-C1-H18=108.78              C3-C2-C1=110.37                H20-C2-C1=108.71               
H20-C2-C3=110.86               H21-C2-C1=108.82               H21-C2-C3=109.73               H21-C2-H20=108.29              
C4-C3-C2=121.22                C8-C3-C2=119.12                C8-C3-C4=119.64                C5-C4-C3=122.01                
H22-C4-C3=119.22               H22-C4-C5=118.66               C6-C5-C4=118.98                H23-C5-C4=120.31               
H23-C5-C6=120.35               C7-C6-C5=120.80                H24-C6-C5=119.03               H24-C6-C7=120.11               
C8-C7-C6=121.35                H25-C7-C6=120.88               H25-C7-C8=117.66               C7-C8-C3=111.62                
C9-C8-C3=108.91                C9-C8-C7=108.12                H26-C8-C3=110.74               H26-C8-C7=110.81               
H26-C8-C9=106.45               C10-C9-C8=111.43               C11-C9-C8=111.45               C11-C9-C10=110.36              
H27-C9-C8=106.20               H27-C9-C10=108.41              H27-C9-C11=108.83              H28-C10-C9=109.49              
H29-C10-C9=111.35              H29-C10-H28=108.31             H30-C10-C9=110.60              H30-C10-H28=108.41             
H30-C10-H29=108.60             

 selected dihedral angles (degree)
 ---------------------------------
C3-C2-C1-H17= 60.75           C3-C2-C1-H18=180.75           C3-C2-C1-H19=300.94           H20-C2-C1-H17=298.96          
H20-C2-C1-H18= 58.95          H20-C2-C1-H19=179.14          H21-C2-C1-H17=181.21          H21-C2-C1-H18=301.21          
H21-C2-C1-H19= 61.40          C4-C3-C2-C1= 93.69            C4-C3-C2-H20=214.20           C4-C3-C2-H21=333.78           
C8-C3-C2-C1=275.35            C8-C3-C2-H20= 35.86           C8-C3-C2-H21=155.43           C5-C4-C3-C2=191.52            
C5-C4-C3-C8=  9.86            H22-C4-C3-C2=  7.61           H22-C4-C3-C8=185.95           C6-C5-C4-C3=  8.21            
C6-C5-C4-H22=192.10           H23-C5-C4-C3=181.32           H23-C5-C4-H22=  5.21          C7-C6-C5-C4=351.01            
C7-C6-C5-H23=177.90           H24-C6-C5-C4=168.01           H24-C6-C5-H23=354.90          C8-C7-C6-C5=351.52            
C8-C7-C6-H24=174.55           H25-C7-C6-C5=175.56           H25-C7-C6-H24=358.59          C7-C8-C3-C2=153.58            
C7-C8-C3-C4=335.21            C9-C8-C3-C2=272.88            C9-C8-C3-C4= 94.51            H26-C8-C3-C2= 29.62           
H26-C8-C3-C4=211.25           C3-C8-C7-C6= 24.38            C3-C8-C7-H25=200.47           C9-C8-C7-C6=264.61            
C9-C8-C7-H25= 80.70           H26-C8-C7-C6=148.31           H26-C8-C7-H25=324.39          C10-C9-C8-C3=188.58           
C10-C9-C8-C7=310.05           C10-C9-C8-H26= 69.15          C11-C9-C8-C3= 64.82           C11-C9-C8-C7=186.28           
C11-C9-C8-H26=305.38          H27-C9-C8-C3=306.44           H27-C9-C8-C7= 67.91           H27-C9-C8-H26=187.01          
H28-C10-C9-C8=187.68          H28-C10-C9-C11=312.06         H28-C10-C9-H27= 71.16         H29-C10-C9-C8=307.43          
H29-C10-C9-C11= 71.81         H29-C10-C9-H27=190.91         H30-C10-C9-C8= 68.28          H30-C10-C9-C11=192.66         
H30-C10-C9-H27=311.76         
           -------------------------------------------------
          |                Final Singlepoint                |
           -------------------------------------------------

          ...................................................
          :                      SETUP                      :
          :.................................................:
          :  # basis functions                  83          :
          :  # atomic orbitals                  83          :
          :  # shells                           51          :
          :  # electrons                        83          :
          :  max. iterations                   250          :
          :  Hamiltonian                  GFN2-xTB          :
          :  restarted?                      false          :
          :  GBSA solvation                  false          :
          :  PC potential                    false          :
          :  electronic temp.          300.0000000     K    :
          :  accuracy                    1.0000000          :
          :  -> integral cutoff          0.2500000E+02      :
          :  -> integral neglect         0.1000000E-07      :
          :  -> SCF convergence          0.1000000E-05 Eh   :
          :  -> wf. convergence          0.1000000E-03 e    :
          :  Broyden damping             0.4000000          :
          :  net charge                          0          :
          :  unpaired electrons                  0          :
          ...................................................

 iter      E             dE          RMSdq      gap      omega  full diag
   1    -44.6658850 -0.446659E+02  0.826E-05    2.17       0.0  T
   2    -44.6658850 -0.237677E-10  0.491E-05    2.17     344.3  T
   3    -44.6658850  0.341061E-12  0.288E-05    2.17     586.8  T

   *** convergence criteria satisfied after 3 iterations ***

         #    Occupation            Energy/Eh            Energy/eV
      -------------------------------------------------------------
         1        2.0000           -0.6444336             -17.5359
       ...           ...                  ...                  ...
        36        2.0000           -0.4174303             -11.3589
        37        2.0000           -0.4129272             -11.2363
        38        2.0000           -0.4062836             -11.0555
        39        2.0000           -0.4020195             -10.9395
        40        2.0000           -0.3925124             -10.6808
        41        2.0000           -0.3861759             -10.5084
        42        1.0000           -0.3006169              -8.1802 (HOMO)
        43                         -0.2207029              -6.0056 (LUMO)
        44                         -0.2198293              -5.9819
        45                         -0.2032845              -5.5317
        46                         -0.1254052              -3.4124
        47                         -0.0911945              -2.4815
       ...                                ...                  ...
        83                          0.6660078              18.1230
      -------------------------------------------------------------
                  HL-Gap            0.0799140 Eh            2.1746 eV
             Fermi-level           -0.3020282 Eh           -8.2186 eV

 SCC (total)                   0 d,  0 h,  0 min,  0.007 sec
 SCC setup                      ...        0 min,  0.000 sec (  0.804%)
 Dispersion                     ...        0 min,  0.000 sec (  1.318%)
 classical contributions        ...        0 min,  0.000 sec (  0.322%)
 integral evaluation            ...        0 min,  0.001 sec ( 13.911%)
 iterations                     ...        0 min,  0.003 sec ( 36.959%)
 molecular gradient             ...        0 min,  0.003 sec ( 43.040%)
 printout                       ...        0 min,  0.000 sec (  3.527%)

         :::::::::::::::::::::::::::::::::::::::::::::::::::::
         ::                     SUMMARY                     ::
         :::::::::::::::::::::::::::::::::::::::::::::::::::::
         :: total energy             -43.880468182435 Eh    ::
         :: gradient norm              0.000232208852 Eh/a0 ::
         :: HOMO-LUMO gap              2.174571720102 eV    ::
         ::.................................................::
         :: SCC energy               -44.665215549351 Eh    ::
         :: -> isotropic ES            0.004274974245 Eh    ::
         :: -> anisotropic ES          0.008778718235 Eh    ::
         :: -> anisotropic XC          0.028636165734 Eh    ::
         :: -> dispersion             -0.036692796529 Eh    ::
         :: repulsion energy           0.784747366916 Eh    ::
         :: add. restraining           0.000000000000 Eh    ::
         :: total charge               0.000000000000 e     ::
         :::::::::::::::::::::::::::::::::::::::::::::::::::::

           -------------------------------------------------
          |                Property Printout                |
           -------------------------------------------------

    * Orbital Energies and Occupations

         #    Occupation            Energy/Eh            Energy/eV
      -------------------------------------------------------------
         1        2.0000           -0.6444336             -17.5359
       ...           ...                  ...                  ...
        30        2.0000           -0.4529310             -12.3249
        31        2.0000           -0.4450753             -12.1111
        32        2.0000           -0.4407954             -11.9947
        33        2.0000           -0.4346574             -11.8276
        34        2.0000           -0.4316044             -11.7446
        35        2.0000           -0.4207425             -11.4490
        36        2.0000           -0.4174303             -11.3589
        37        2.0000           -0.4129272             -11.2363
        38        2.0000           -0.4062836             -11.0555
        39        2.0000           -0.4020195             -10.9395
        40        2.0000           -0.3925124             -10.6808
        41        2.0000           -0.3861759             -10.5084
        42        1.0000           -0.3006169              -8.1802 (HOMO)
        43                         -0.2207029              -6.0056 (LUMO)
        44                         -0.2198293              -5.9819
        45                         -0.2032845              -5.5317
        46                         -0.1254052              -3.4124
        47                         -0.0911945              -2.4815
        48                          0.0654308               1.7805
        49                          0.0924743               2.5164
        50                          0.1028008               2.7974
        51                          0.1112577               3.0275
        52                          0.1178975               3.2082
        53                          0.1261793               3.4335
       ...                                ...                  ...
        83                          0.6660078              18.1230
      -------------------------------------------------------------
                  HL-Gap            0.0799140 Eh            2.1746 eV
             Fermi-level           -0.3020282 Eh           -8.2186 eV

     #   Z          covCN         q      C6AA      α(0)
     1   6 C        3.754    -0.096    22.395     6.748
     2   6 C        3.806    -0.058    21.615     6.619
     3   6 C        2.962     0.001    28.002     8.680
     4   6 C        2.910    -0.042    29.033     8.835
     5   6 C        2.916    -0.044    29.092     8.845
     6   6 C        2.905    -0.035    28.868     8.810
     7   6 C        2.911    -0.044    29.090     8.844
     8   6 C        3.861    -0.015    20.805     6.487
     9   6 C        3.857    -0.015    20.799     6.486
    10   6 C        3.755    -0.100    22.465     6.758
    11   6 C        2.972     0.012    27.740     8.639
    12   6 C        2.925    -0.037    28.928     8.820
    13   6 C        2.918    -0.030    28.754     8.793
    14   6 C        2.920    -0.034    28.842     8.807
    15   6 C        2.919    -0.032    28.795     8.800
    16   6 C        2.925    -0.035    28.879     8.813
    17   1 H        0.925     0.034     2.535     2.490
    18   1 H        0.925     0.036     2.507     2.476
    19   1 H        0.925     0.036     2.499     2.472
    20   1 H        0.924     0.038     2.470     2.458
    21   1 H        0.924     0.034     2.533     2.489
    22   1 H        0.925     0.023     2.682     2.561
    23   1 H        0.926     0.022     2.706     2.572
    24   1 H        0.925     0.023     2.689     2.564
    25   1 H        0.926     0.024     2.666     2.554
    26   1 H        0.924     0.041     2.433     2.439
    27   1 H        0.924     0.036     2.500     2.473
    28   1 H        0.925     0.036     2.500     2.472
    29   1 H        0.925     0.039     2.466     2.456
    30   1 H        0.925     0.040     2.444     2.445
    31   1 H        0.926     0.027     2.627     2.535
    32   1 H        0.926     0.029     2.607     2.525
    33   1 H        0.926     0.028     2.621     2.532
    34   1 H        0.926     0.028     2.622     2.532
    35   1 H        0.926     0.030     2.589     2.516

 Mol. C6AA /au·bohr⁶  :      12653.602229
 Mol. C8AA /au·bohr⁸  :     299415.020822
 Mol. α(0) /au        :        177.344097


Wiberg/Mayer (AO) data.
largest (>0.10) Wiberg bond orders for each atom

 ---------------------------------------------------------------------------
     #   Z sym  total        # sym  WBO       # sym  WBO       # sym  WBO
 ---------------------------------------------------------------------------
     1   6 C    3.996 --     2 C    0.990    19 H    0.989    17 H    0.988
                            18 H    0.986
     2   6 C    3.997 --     3 C    1.027     1 C    0.990    21 H    0.973
                            20 H    0.964
     3   6 C    3.918 --     4 C    1.568     8 C    1.028     2 C    1.027
     4   6 C    3.991 --     3 C    1.568     5 C    1.337    22 H    0.965
     5   6 C    3.877 --     4 C    1.337     6 C    1.307    23 H    0.974
     6   6 C    3.991 --     7 C    1.628     5 C    1.307    24 H    0.967
     7   6 C    3.921 --     6 C    1.628     8 C    1.038    25 H    0.971
     8   6 C    3.994 --     7 C    1.038     3 C    1.028    26 H    0.948
                             9 C    0.879
     9   6 C    3.986 --    11 C    1.010    10 C    0.999    27 H    0.968
                             8 C    0.879
    10   6 C    3.996 --     9 C    0.999    29 H    0.984    28 H    0.984
                            30 H    0.984
    11   6 C    3.988 --    12 C    1.404    16 C    1.400     9 C    1.010
                            14 C    0.108
    12   6 C    3.991 --    13 C    1.446    11 C    1.404    31 H    0.969
                            15 C    0.109
    13   6 C    3.992 --    12 C    1.446    14 C    1.438    32 H    0.971
                            16 C    0.110
    14   6 C    3.988 --    13 C    1.438    15 C    1.433    33 H    0.972
                            11 C    0.108
    15   6 C    3.992 --    16 C    1.451    14 C    1.433    34 H    0.971
                            12 C    0.109
    16   6 C    3.990 --    15 C    1.451    11 C    1.400    35 H    0.967
                            13 C    0.110
    17   1 H    0.999 --     1 C    0.988
    18   1 H    0.997 --     1 C    0.986
    19   1 H    0.999 --     1 C    0.989
    20   1 H    0.998 --     2 C    0.964
    21   1 H    0.998 --     2 C    0.973
    22   1 H    0.999 --     4 C    0.965
    23   1 H    0.999 --     5 C    0.974
    24   1 H    0.999 --     6 C    0.967
    25   1 H    0.999 --     7 C    0.971
    26   1 H    0.998 --     8 C    0.948
    27   1 H    0.998 --     9 C    0.968
    28   1 H    0.997 --    10 C    0.984
    29   1 H    0.998 --    10 C    0.984
    30   1 H    0.998 --    10 C    0.984
    31   1 H    0.999 --    12 C    0.969
    32   1 H    0.999 --    13 C    0.971
    33   1 H    0.999 --    14 C    0.972
    34   1 H    0.999 --    15 C    0.971
    35   1 H    0.999 --    16 C    0.967
 ---------------------------------------------------------------------------

Topologies differ in total number of bonds
Writing topology from bond orders to xtbtopo.mol

molecular dipole:
                 x           y           z       tot (Debye)
 q only:        0.171      -0.170       0.148
   full:        0.183      -0.173       0.170       0.773
molecular quadrupole (traceless):
                xx          xy          yy          xz          yz          zz
 q only:       -2.143       0.037       1.428      -1.682       0.739       0.714
  q+dip:       -5.685      -1.154       4.771       2.879       0.016       0.914
   full:       -3.283      -0.389       2.684      -0.184       0.443       0.600

           -------------------------------------------------
          |                Geometry Summary                 |
           -------------------------------------------------

      molecular mass/u    :      211.3226486
   center of mass at/Å    :        0.0875826       0.0727556      -0.0491982
  moments of inertia/u·Å² :        0.5769857E+03   0.1270564E+04   0.1495851E+04
rotational constants/cm⁻¹ :        0.2921672E-01   0.1326783E-01   0.1126960E-01

 * 31 selected distances

     #   Z          #   Z                                           value/Å
     1   6 C        2   6 C                                       1.5336655 (max)
     3   6 C        4   6 C                                       1.3644046
     4   6 C        5   6 C                                       1.3997647
     5   6 C        6   6 C                                       1.4039143
     6   6 C        7   6 C                                       1.3558861
     9   6 C       10   6 C                                       1.5297706
    11   6 C       12   6 C                                       1.3907403
    12   6 C       13   6 C                                       1.3833055
    13   6 C       14   6 C                                       1.3842939
    14   6 C       15   6 C                                       1.3848939
    11   6 C       16   6 C                                       1.3920424
    15   6 C       16   6 C                                       1.3826030
     1   6 C       17   1 H                                       1.0875065
     1   6 C       18   1 H                                       1.0875181
     1   6 C       19   1 H                                       1.0875897
     2   6 C       20   1 H                                       1.0907206
     2   6 C       21   1 H                                       1.0921309
     4   6 C       22   1 H                                       1.0821416
     5   6 C       23   1 H                                       1.0783380 (min)
     6   6 C       24   1 H                                       1.0813096
     7   6 C       25   1 H                                       1.0790414
     8   6 C       26   1 H                                       1.0957046
     9   6 C       27   1 H                                       1.0947153
    10   6 C       28   1 H                                       1.0885865
    10   6 C       29   1 H                                       1.0871572
    10   6 C       30   1 H                                       1.0866668
    12   6 C       31   1 H                                       1.0808596
    13   6 C       32   1 H                                       1.0803725
    14   6 C       33   1 H                                       1.0800056
    15   6 C       34   1 H                                       1.0805985
    16   6 C       35   1 H                                       1.0802512

 * 2 distinct bonds (by element types)

   Z      Z             #   av. dist./Å        max./Å        min./Å
   1 H    6 C          19     1.0853271     1.0957046     1.0783380
   6 C    6 C          12     1.4087737     1.5336655     1.3558861


optimized geometry written to: xtbopt.xyz


           -------------------------------------------------
          | TOTAL ENERGY              -43.880468182435 Eh   |
          | GRADIENT NORM               0.000232208852 Eh/α |
          | HOMO-LUMO GAP               2.174571720102 eV   |
           -------------------------------------------------

------------------------------------------------------------------------
 * finished run on 2025/09/15 at 14:52:50.724     
------------------------------------------------------------------------
 total:
 * wall-time:     0 d,  0 h,  0 min,  0.499 sec
 *  cpu-time:     0 d,  0 h,  0 min,  1.975 sec
 * ratio c/w:     3.957 speedup
 SCF:
 * wall-time:     0 d,  0 h,  0 min,  0.028 sec
 *  cpu-time:     0 d,  0 h,  0 min,  0.106 sec
 * ratio c/w:     3.793 speedup
 ANC optimizer:
 * wall-time:     0 d,  0 h,  0 min,  0.446 sec
 *  cpu-time:     0 d,  0 h,  0 min,  1.785 sec
 * ratio c/w:     4.000 speedup

