35
 energy: -43.868053282118 gnorm: 0.072428456994 xtb: 6.7.1 (edcfbbe)
C           -1.84520000000000       -0.14610000000000        2.25820000000000
C           -1.39700000000000        0.96080000000000        1.31330000000000
C           -1.61770000000000        0.62420000000000       -0.14620000000000
C           -2.53810000000000        1.31450000000000       -0.85210000000000
C           -2.84300000000000        0.92180000000000       -2.20460000000000
C           -2.48600000000000       -0.37840000000000       -2.70510000000000
C           -1.55780000000000       -1.08020000000000       -2.03830000000000
C           -0.83870000000000       -0.55650000000000       -0.78710000000000
C            0.65580000000000       -0.19190000000000       -1.11930000000000
C            1.35450000000000       -1.21140000000000       -2.04050000000000
C            1.54340000000000       -0.01460000000000        0.11020000000000
C            2.23800000000000        1.19130000000000        0.29860000000000
C            3.06540000000000        1.37080000000000        1.40860000000000
C            3.21580000000000        0.34640000000000        2.34020000000000
C            2.54310000000000       -0.86000000000000        2.16060000000000
C            1.71560000000000       -1.04220000000000        1.05100000000000
H           -1.23720000000000       -1.04830000000000        2.14580000000000
H           -1.75030000000000        0.18750000000000        3.29680000000000
H           -2.89270000000000       -0.41450000000000        2.08490000000000
H           -0.35240000000000        1.21180000000000        1.50290000000000
H           -1.95810000000000        1.86740000000000        1.57600000000000
H           -3.10570000000000        2.13420000000000       -0.42370000000000
H           -3.50300000000000        1.54790000000000       -2.79490000000000
H           -2.97820000000000       -0.76340000000000       -3.59070000000000
H           -1.28840000000000       -2.07170000000000       -2.39140000000000
H           -0.86690000000000       -1.39320000000000       -0.07850000000000
H            0.64270000000000        0.76060000000000       -1.66910000000000
H            2.41420000000000       -0.96260000000000       -2.17420000000000
H            1.30050000000000       -2.22740000000000       -1.63360000000000
H            0.90690000000000       -1.21980000000000       -3.03960000000000
H            2.13370000000000        2.00320000000000       -0.41790000000000
H            3.59300000000000        2.31120000000000        1.54460000000000
H            3.86050000000000        0.48680000000000        3.20360000000000
H            2.66490000000000       -1.66230000000000        2.88360000000000
H            1.20830000000000       -1.99600000000000        0.92780000000000
35
 energy: -43.876926830199 gnorm: 0.032756408116 xtb: 6.7.1 (edcfbbe)
C           -1.83591813972146       -0.15275373705608        2.25285731413121
C           -1.38007266144014        0.94629384789042        1.29554251323825
C           -1.60270612905222        0.60035485744499       -0.15464841513800
C           -2.51977479147574        1.29130328008309       -0.87802654273293
C           -2.86966970989013        0.91227210887236       -2.19519999917722
C           -2.46195398335489       -0.34878462808110       -2.68940863636253
C           -1.53789762991969       -1.06556184799848       -2.01610519862944
C           -0.83569426037434       -0.56063020347293       -0.77721199328803
C            0.65008996013563       -0.18275653921954       -1.10909109691094
C            1.33080014995741       -1.21034109405775       -2.02817257310605
C            1.51767025524485       -0.00275929192329        0.12241840196447
C            2.21835626238940        1.18757447240012        0.30880499648059
C            3.05350717305983        1.36120281454133        1.40235144732318
C            3.20614398969959        0.34302791381051        2.32868305161432
C            2.53362272050520       -0.85414377940589        2.14534260320207
C            1.70230449156782       -1.02754059315030        1.04866891831007
H           -1.23295081042665       -1.05238317165751        2.14311356310647
H           -1.74401164122676        0.18611035639793        3.28521329615647
H           -2.87954207949564       -0.41168585766281        2.07215986474932
H           -0.32668341974914        1.17263082296601        1.48280313187740
H           -1.94762766529787        1.85494389712108        1.53070148767866
H           -3.05036426673233        2.13404206397298       -0.45242157731546
H           -3.53077429203816        1.53582118117342       -2.77945507956661
H           -2.93700069710602       -0.73110219382080       -3.58258520817701
H           -1.26940391857446       -2.05741924209689       -2.35638501077513
H           -0.82493556522541       -1.38827262261214       -0.05818040815021
H            0.62224799616783        0.77006439348434       -1.65155953975141
H            2.38427794104295       -0.94957778523515       -2.14757385398614
H            1.28273144152576       -2.21844926545832       -1.61688391984994
H            0.87958582434676       -1.21668562499341       -3.02044600103495
H            2.11681858657781        1.99104596762763       -0.40957582778685
H            3.58277669875207        2.29602412788683        1.53446717870283
H            3.84965422197512        0.48099876343905        3.18801310818291
H            2.65659700075874       -1.65582370240898        2.86213422890399
H            1.19969694739428       -1.97713968880070        0.91955577611667
35
 energy: -43.879329923636 gnorm: 0.008796795640 xtb: 6.7.1 (edcfbbe)
C           -1.82652777613754       -0.15727876471722        2.24458934767021
C           -1.35931335403927        0.93881426516478        1.28283157600152
C           -1.59079233231348        0.58189612473955       -0.15572644142522
C           -2.49580397966159        1.28317565704330       -0.89618570723326
C           -2.87577876900734        0.90463253291763       -2.18726409887957
C           -2.44402130204030       -0.33547680883911       -2.67556599174646
C           -1.53213528902131       -1.07021227743264       -1.99414529983472
C           -0.84671872689854       -0.57097633761294       -0.76513688929093
C            0.63616116742625       -0.17361752781793       -1.10113215118196
C            1.31546015232791       -1.20160021760389       -2.01441810283111
C            1.49968138044751        0.00451092331868        0.12227713241567
C            2.19827536699264        1.19064656651492        0.31261486273942
C            3.03550730021233        1.36052549515407        1.39988935322202
C            3.19223433538919        0.34112452254097        2.32126093018501
C            2.51631854846802       -0.85147015346267        2.13532158172394
C            1.68530111027124       -1.01974307675547        1.04321498703194
H           -1.22775289697671       -1.05692182112357        2.13543292244393
H           -1.73278180062814        0.18652664395732        3.27201631909720
H           -2.86879798688367       -0.40734249510682        2.05809502221724
H           -0.29764211807884        1.13510700396737        1.46358527508011
H           -1.91596992415640        1.85377463234564        1.50498877578376
H           -2.99078476693215        2.14556803150343       -0.46427792191959
H           -3.55756609848534        1.51442202736529       -2.75788386460678
H           -2.88270422942775       -0.71072669775149       -3.59125211118708
H           -1.25212450243585       -2.05284172392522       -2.34207178139089
H           -0.79009262841243       -1.39357623180265       -0.03888742491243
H            0.59697682711789        0.77861475765719       -1.64063245496012
H            2.36611130664224       -0.93937363339008       -2.13087336912949
H            1.26238775915461       -2.20208143618696       -1.59343230360653
H            0.85490078295022       -1.20887237268208       -2.99846661388792
H            2.08801994399460        1.99333040351434       -0.40214804818108
H            3.57150542962479        2.28976707123069        1.52621521385023
H            3.84279042071137        0.47240107024664        3.17331670591205
H            2.64527627900922       -1.65757231239936        2.84291797293933
H            1.18030037079656       -1.96525384057168        0.91083259789158
35
 energy: -43.879714472851 gnorm: 0.005416908924 xtb: 6.7.1 (edcfbbe)
C           -1.81904125181955       -0.15642904067720        2.24258964544554
C           -1.34326197056125        0.93628562029220        1.27956709076690
C           -1.58767935810970        0.57569425150058       -0.15341099875635
C           -2.48473883260299        1.28555897312744       -0.89794630642570
C           -2.87481862925841        0.89915913673798       -2.18373156756458
C           -2.43160216849416       -0.33517268267647       -2.67917600111572
C           -1.52853223769906       -1.07763414239326       -1.99246901507868
C           -0.85316848807032       -0.58082189163926       -0.75922083032094
C            0.62923558337513       -0.16941719301516       -1.10002604422582
C            1.30881416239082       -1.19732437946110       -2.01152689028958
C            1.48567399336972        0.01150756999169        0.12422203623394
C            2.18223647573935        1.19917279502986        0.31728057392914
C            3.02591274294615        1.36340757328001        1.40073941380033
C            3.18677452361966        0.33904052038147        2.31733212058974
C            2.50843472069963       -0.85300279871969        2.13070737413046
C            1.67304618737659       -1.01697613171289        1.04143522766183
H           -1.22493964407632       -1.05924164203229        2.13241474215663
H           -1.72348425239373        0.18729150212309        3.26956316238359
H           -2.86217261258055       -0.40021908622324        2.05295025706309
H           -0.27776452680312        1.11544401161585        1.45418206886428
H           -1.88460945242365        1.85829260574803        1.50362098569404
H           -2.95740549708402        2.16000591090098       -0.46347020718939
H           -3.56822717454793        1.50173624608282       -2.74813564114095
H           -2.85693366277003       -0.71137742530754       -3.60060118043073
H           -1.24809787472374       -2.05850720730206       -2.34345918227572
H           -0.78125535905519       -1.40223573976828       -0.03325184599431
H            0.57945742306815        0.78302428406066       -1.63856275809155
H            2.35868450934608       -0.93459063155520       -2.12881812324130
H            1.25496327115459       -2.19509307778344       -1.58335700252988
H            0.84577003819614       -1.20890203933340       -2.99416432132309
H            2.06567158404984        2.00393863336523       -0.39476898551645
H            3.56086086574078        2.29291280194395        1.52880227174767
H            3.83930289303389        0.46709819177451        3.16803714640950
H            2.63639420726172       -1.66108842669862        2.83622851011652
H            1.16639981170537       -1.96163709165717        0.90632427451763
35
 energy: -43.879842379520 gnorm: 0.002280441441 xtb: 6.7.1 (edcfbbe)
C           -1.81213914118682       -0.15379340605740        2.24329745581513
C           -1.32861490514745        0.93359877000806        1.27769364074282
C           -1.58618902588655        0.57180664252704       -0.15190639749160
C           -2.47603798793484        1.28876337588325       -0.89866680346273
C           -2.86763788101653        0.89782141046090       -2.18324711950779
C           -2.42835156764565       -0.33753562027412       -2.68018684663068
C           -1.53224012175496       -1.08573443773758       -1.99118040005258
C           -0.85823690605394       -0.58980224918181       -0.75657531975999
C            0.62489772246184       -0.16900153346670       -1.10049419560872
C            1.30739274925020       -1.19450411584683       -2.01125677499094
C            1.47993832710138        0.01440546629974        0.12256492637669
C            2.16990712013302        1.20611317034764        0.32087827601614
C            3.01358223412709        1.36813858962070        1.40500889607592
C            3.17896926587699        0.33919253863068        2.31657299927712
C            2.50154926985601       -0.85369806232859        2.12844705860369
C            1.66720427282682       -1.01664552306949        1.03822698009462
H           -1.22359277073188       -1.06077396444749        2.13347249073684
H           -1.71439937650279        0.18975261923878        3.27022160726151
H           -2.85663159608117       -0.39138552967001        2.05262424621018
H           -0.26033336330358        1.09790060390388        1.44608480028105
H           -1.85362507499012        1.86372154269446        1.50602265367779
H           -2.93700609685773        2.16701593371385       -0.46345101615891
H           -3.56773456154824        1.49581988751380       -2.74429029322705
H           -2.84374390544776       -0.71108615017383       -3.60666422325934
H           -1.25164640085352       -2.06528521773053       -2.34595985575184
H           -0.78063677715191       -1.40983897130392       -0.03247893872867
H            0.56516825522464        0.78309707948146       -1.63879608307006
H            2.35659801153106       -0.93008802230198       -2.13063386337100
H            1.25510059786758       -2.19143416355805       -1.57991664351088
H            0.84277239996270       -1.20923717003381       -2.99326461772797
H            2.04431038489150        2.01472130643461       -0.38603318442102
H            3.54616284915743        2.29882152909451        1.53615027127818
H            3.83572902052281        0.46370288982376        3.16472074670074
H            2.63022887311403       -1.66399199171045        2.83166296594522
H            1.15918610619017       -1.96065722678439        0.90125256163824
35
 energy: -43.879878886190 gnorm: 0.001400180949 xtb: 6.7.1 (edcfbbe)
C           -1.80904308664265       -0.15149351830017        2.24555617302766
C           -1.32126382352424        0.93140142867691        1.27738570868509
C           -1.58535681779045        0.56978870544756       -0.15107963600404
C           -2.47256942469395        1.28918056347046       -0.89785093688075
C           -2.86232707571099        0.89882153473750       -2.18358717776158
C           -2.42711156940225       -0.33806306541772       -2.68105181738775
C           -1.53416422725866       -1.08899894106325       -1.99129615451161
C           -0.85952639791999       -0.59381042865125       -0.75638130814441
C            0.62379980161866       -0.17084041819690       -1.10229226706460
C            1.30799404795289       -1.19443783272298       -2.01354163793989
C            1.47793896487546        0.01438563517315        0.12101765467273
C            2.16228306829323        1.20907509133161        0.32318791434283
C            3.00471218743260        1.37120842206710        1.40844586353565
C            3.17394636444098        0.34006604862620        2.31682662560291
C            2.49991843027324       -0.85444575049694        2.12673305737761
C            1.66699050598214       -1.01784348106233        1.03540450488002
H           -1.22435203462107       -1.06136301591485        2.13727785507055
H           -1.70917593094856        0.19332027828417        3.27196512379912
H           -2.85465696167478       -0.38520512839474        2.05613425212152
H           -0.25180621599142        1.08789566949498        1.44176677248391
H           -1.83714340700992        1.86641972371090        1.50757535044653
H           -2.92857869698279        2.16981640509622       -0.46417082711383
H           -3.56059390655229        1.49804683224712       -2.74523850999135
H           -2.84367254914094       -0.71121638859621       -3.60615066229864
H           -1.25704165430639       -2.07012605075005       -2.34489886981711
H           -0.78195096143601       -1.41327643074874       -0.03327851989645
H            0.56004757948333        0.78084032562689       -1.64051884932508
H            2.35657746006718       -0.92758855166302       -2.13434513906149
H            1.25885035779108       -2.19167707027936       -1.58236782206900
H            0.84285478821226       -1.21070043917383       -2.99543795140880
H            2.03217743121831        2.01951640090106       -0.38087125457339
H            3.53234818731990        2.30427854685801        1.54366579866747
H            3.83016111929000        0.46463273942468        3.16541566347620
H            2.62880843970080       -1.66515381724137        2.82950887793184
H            1.16082600765505       -1.96255402250064        0.89639214512828
35
 energy: -43.879916665600 gnorm: 0.001896969524 xtb: 6.7.1 (edcfbbe)
C           -1.80590778115910       -0.14781125071143        2.25011612616237
C           -1.31233819237081        0.92787066001808        1.27759522093751
C           -1.58217016852490        0.56759903018516       -0.15026652450095
C           -2.46642883227956        1.28981395779496       -0.89666652556096
C           -2.85492208039178        0.90139503814521       -2.18399355324528
C           -2.42801102538010       -0.33928962347513       -2.67979186756378
C           -1.53783064385336       -1.09308036444680       -1.98995196113039
C           -0.85905451973463       -0.59800741525207       -0.75709773831727
C            0.62372870092144       -0.17434329424680       -1.10618705418666
C            1.30881667294295       -1.19571872323176       -2.01885488998010
C            1.47774866234392        0.01238156010155        0.11729561879930
C            2.15276222866990        1.21142614709397        0.32560220143653
C            2.99025129980987        1.37584869761406        1.41433979015975
C            3.16409859760976        0.34289403838541        2.31934614533522
C            2.49827081998260       -0.85529817715108        2.12436891772400
C            1.67007823900633       -1.02094189305980        1.02974589311072
H           -1.22714923212102       -1.06196211227373        2.14500833650709
H           -1.70202343332868        0.20029905847405        3.27516967729639
H           -2.85331600822379       -0.37578308640869        2.06404399117254
H           -0.24166255937354        1.07412397516466        1.43743774736607
H           -1.81749177424414        1.86885771365246        1.50828629790438
H           -2.92052396768272        2.17103478000768       -0.46488138962836
H           -3.54605995329022        1.50578476927637       -2.74888571236822
H           -2.84720842467922       -0.71024133941081       -3.60442252675719
H           -1.26556051732644       -2.07668845434547       -2.34128485957502
H           -0.78177778831389       -1.41692325029344       -0.03417301567376
H            0.55705460285895        0.77674072070090       -1.64439158535659
H            2.35608458925113       -0.92401954084196       -2.14249215824879
H            1.26603236923748       -2.19377031255562       -1.58895285652145
H            0.84188301956992       -1.21377524523273       -3.00005998646429
H            2.01781581532909        2.02374440025100       -0.37503931671925
H            3.50980437674120        2.31271226349422        1.55584373838455
H            3.81760931099100        0.46902542147242        3.16984351605074
H            2.62870760366256       -1.66653687853998        2.82621154447127
H            1.16858999334950       -1.96746127035464        0.88703875898012
35
 energy: -43.879944398355 gnorm: 0.001080500553 xtb: 6.7.1 (edcfbbe)
C           -1.80506538053113       -0.14519713319951        2.25336317224084
C           -1.30752688251148        0.92625726095803        1.27840196860379
C           -1.57876006914549        0.56552390161688       -0.14916369189425
C           -2.46117972033231        1.28964884115208       -0.89577060164636
C           -2.84955422163740        0.90370536521027       -2.18374749709265
C           -2.42682289702383       -0.33882514548955       -2.67843834302431
C           -1.53855656409716       -1.09485126664461       -1.98824988138811
C           -0.85700970034196       -0.59998467894889       -0.75715119312624
C            0.62467096293905       -0.17729428688847       -1.10950693574682
C            1.30844725191472       -1.19783031381388       -2.02397051614480
C            1.47888930205788        0.00981631266726        0.11379850045210
C            2.14688657371404        1.21180766723930        0.32627834491020
C            2.97895794982346        1.37927954314909        1.41862879126203
C            3.15511643914397        0.34598140998793        2.32265229888476
C            2.49788454975022       -0.85606388510262        2.12220837869363
C            1.67459518475401       -1.02429976189413        1.02437149197614
H           -1.23085964915450       -1.06231736007688        2.14972503169867
H           -1.69759869603998        0.20526634706084        3.27723517073352
H           -2.85384563272968       -0.36862155586412        2.06990463821111
H           -0.23618193471337        1.06685674022333        1.43739556439847
H           -1.80849433540023        1.86965348630495        1.50716150863740
H           -2.91387292879654        2.17301676082372       -0.46504907864015
H           -3.53630096916322        1.51209376354014       -2.75025654768059
H           -2.85075823657141       -0.70949474382149       -3.60119168293124
H           -1.27014775786224       -2.08021646539987       -2.33762757695437
H           -0.77841649497333       -1.41882655265205       -0.03345992834721
H            0.55802001573321        0.77389160473857       -1.64745696978263
H            2.35455995469275       -0.92342442283611       -2.15142279742511
H            1.26971249374978       -2.19585286286979       -1.59388963253185
H            0.83779600144234       -1.21721148485442       -3.00337667368106
H            2.00991603996383        2.02469133906369       -0.37309748859142
H            3.49202818256037        2.31898920656230        1.56433879841656
H            3.80344591711204        0.47500718873842        3.17665247577838
H            2.63084905333756       -1.66792012847045        2.82276529888750
H            1.17907619833566       -1.97335469020966        0.87784560284432
35
 energy: -43.879970730232 gnorm: 0.000946019170 xtb: 6.7.1 (edcfbbe)
C           -1.80493617803255       -0.14249834108369        2.25601338560437
C           -1.30260589546771        0.92564818905621        1.27963617362894
C           -1.57229726429643        0.56526135133715       -0.14828163721030
C           -2.45239907791797        1.29194540861902       -0.89545649130381
C           -2.84391148692741        0.90589289653050       -2.18246815713692
C           -2.42613334870170       -0.33905028111440       -2.67535043994115
C           -1.53960070589260       -1.09708125861003       -1.98520089452886
C           -0.85373633840183       -0.60150432716832       -0.75692005983790
C            0.62676070371238       -0.18020974476484       -1.11354269047623
C            1.30664090743718       -1.20141632472123       -2.03019850004050
C            1.48145532585068        0.00684461655986        0.10929271369076
C            2.14127732083607        1.21225439539919        0.32670963858221
C            2.96630165143161        1.38343218432065        1.42384287812866
C            3.14400296624924        0.34995286000648        2.32746923898100
C            2.49800939801487       -0.85704720428130        2.11956776270992
C            1.68137931242374       -1.02861268069992        1.01733227408019
H           -1.23631613663164       -1.06297474822207        2.15197267421627
H           -1.69338092397955        0.20844770930958        3.27923361917347
H           -2.85533671972269       -0.35990093226624        2.07472087693256
H           -0.23113531396992        1.06233961691116        1.44056089199787
H           -1.80118121265170        1.87053107431396        1.50574582595595
H           -2.90630035964865        2.17422954628188       -0.46362193135418
H           -3.52795366739731        1.51698414413167       -2.74953473670959
H           -2.85198313545024       -0.70857125357862       -3.59849848538128
H           -1.27425988055940       -2.08342673100616       -2.33382212138314
H           -0.77315635465687       -1.41989827931273       -0.03214563645877
H            0.56036717270971        0.77133143052869       -1.65130548775015
H            2.35142449221797       -0.92538695701089       -2.16373328541730
H            1.27161797174094       -2.19887698409084       -1.59863838052238
H            0.83022393514982       -1.22255993784289       -3.00672271705682
H            2.00299879124039        2.02536267055041       -0.37214251508809
H            3.47187192102534        2.32636904969477        1.57409531723577
H            3.78453654382646        0.48284334755472        3.18677393762124
H            2.63397878416635       -1.66971861616573        2.81854066861373
H            1.19367680227293       -1.98103588916563        0.86597629044481
35
 energy: -43.879991348486 gnorm: 0.001117752561 xtb: 6.7.1 (edcfbbe)
C           -1.80515969802257       -0.14044210569579        2.25720250417185
C           -1.29808223293848        0.92594322010656        1.28116106704984
C           -1.56734385366073        0.56478887100783       -0.14672803385340
C           -2.44589374207677        1.29321216911439       -0.89422419546783
C           -2.83818010398272        0.90811523556697       -2.18090313773955
C           -2.42393094929336       -0.33829075722181       -2.67309146864696
C           -1.53980919920460       -1.09852044956182       -1.98223694375208
C           -0.85061137863819       -0.60260838979650       -0.75587990889060
C            0.62945871204934       -0.18337363505278       -1.11768492437959
C            1.30493678661897       -1.20582401591673       -2.03613962733174
C            1.48496282108549        0.00397309284939        0.10430242877978
C            2.13622220535305        1.21307636851115        0.32707012453329
C            2.95372981832097        1.38793941612683        1.42931561871226
C            3.13292351605289        0.35406401253356        2.33233384839801
C            2.49825604906804       -0.85771115403623        2.11704633948928
C            1.68873529917786       -1.03269616607268        1.01011287911754
H           -1.24267114706065       -1.06440030180803        2.15056415764825
H           -1.68916088656097        0.20875543778779        3.28047920124022
H           -2.85732937388504       -0.35081786962138        2.07768437138936
H           -0.22645898027695        1.06017952336408        1.44455892811843
H           -1.79488468935080        1.87209628927597        1.50571979700491
H           -2.89547812318500        2.17910118311115       -0.46294055653743
H           -3.52182807686959        1.52015399541476       -2.74721724833987
H           -2.85277910869085       -0.70850032420195       -3.59446089229422
H           -1.27855360693192       -2.08647211508976       -2.32921027124127
H           -0.76810656172814       -1.42023345231902       -0.03043133062301
H            0.56294477780357        0.76816342721893       -1.65569536691593
H            2.34872128586525       -0.92975720133048       -2.17653577229314
H            1.27233660523996       -2.20243438209171       -1.60252531620521
H            0.82234954948693       -1.22874580774910       -3.00952033560374
H            1.99588878064530        2.02675126197900       -0.37089087662444
H            3.45178355722519        2.33413090464802        1.58408730975359
H            3.76618873830587        0.49022648664685        3.19655007599959
H            2.63758829304426       -1.67145180012322        2.81416532965495
H            1.20913491701383       -1.98849096757380        0.85386222567923
35
 energy: -43.880004204761 gnorm: 0.000536044553 xtb: 6.7.1 (edcfbbe)
C           -1.80555479023417       -0.13952303785719        2.25655006940841
C           -1.29419698413094        0.92635920414077        1.28214864334653
C           -1.56223029873376        0.56629512985187       -0.14616925726462
C           -2.43943790314068        1.29626928663096       -0.89407167881540
C           -2.83393585179969        0.91020414318886       -2.17977381694821
C           -2.42313962578399       -0.33781625716138       -2.67071821671430
C           -1.54035551880812       -1.09939178521463       -1.97959405424889
C           -0.84861293796640       -0.60326434277383       -0.75481750143486
C            0.63162938148566       -0.18577452874031       -1.12062857591230
C            1.30340713649096       -1.20999785619540       -2.03960854523266
C            1.48686918547971        0.00266365094101        0.10120550314019
C            2.13135007208854        1.21461788859075        0.32818003939870
C            2.94442225502540        1.39151959915991        1.43335834039516
C            3.12618478849601        0.35670599398491        2.33487404035235
C            2.49961025037840       -0.85823930965774        2.11464291728877
C            1.69419084673768       -1.03508771396367        1.00503932482852
H           -1.24835198294193       -1.06629772634811        2.14661917038692
H           -1.68617263020770        0.20633226436742        3.28057921342462
H           -2.85910444802566       -0.34363463997129        2.07792724598864
H           -0.22248732230361        1.05868111799778        1.44780816380793
H           -1.78950728803453        1.87351597206055        1.50660664447553
H           -2.88742362763197        2.18213510625477       -0.46242683488483
H           -3.51795835385641        1.52219486365676       -2.74561443782149
H           -2.85361291792132       -0.70876258321778       -3.59070981664853