      -----------------------------------------------------------      
     |                   =====================                   |     
     |                           x T B                           |     
     |                   =====================                   |     
     |                         S. Grimme                         |     
     |          Mulliken Center for Theoretical Chemistry        |     
     |                    University of Bonn                     |     
      -----------------------------------------------------------      

   * xtb version 6.7.1 (edcfbbe) compiled by 'conda@c0858423619e' on 2025-09-04

   xtb is free software: you can redistribute it and/or modify it under
   the terms of the GNU Lesser General Public License as published by
   the Free Software Foundation, either version 3 of the License, or
   (at your option) any later version.
   
   xtb is distributed in the hope that it will be useful,
   but WITHOUT ANY WARRANTY; without even the implied warranty of
   MERCHANTABILITY or FITNESS FOR A PARTICULAR PURPOSE.  See the
   GNU Lesser General Public License for more details.
   
   Cite this work as:
   * C. Bannwarth, E. Caldeweyher, S. Ehlert, A. Hansen, P. Pracht,
     J. Seibert, S. Spicher, S. Grimme, WIREs Comput. Mol. Sci., 2020, 11,
     e01493. DOI: 10.1002/wcms.1493
   
   for GFN2-xTB:
   * C. Bannwarth, S. Ehlert and S. Grimme., J. Chem. Theory Comput., 2019,
     15, 1652-1671. DOI: 10.1021/acs.jctc.8b01176
   for GFN1-xTB:
   * S. Grimme, C. Bannwarth, P. Shushkov, J. Chem. Theory Comput., 2017,
     13, 1989-2009. DOI: 10.1021/acs.jctc.7b00118
   for GFN0-xTB:
   * P. Pracht, E. Caldeweyher, S. Ehlert, S. Grimme, ChemRxiv, 2019, preprint.
     DOI: 10.26434/chemrxiv.8326202.v1
   for GFN-FF:
   * S. Spicher and S. Grimme, Angew. Chem. Int. Ed., 2020, 59, 15665-15673.
     DOI: 10.1002/anie.202004239
   
   for ALPB and GBSA implicit solvation:
   * S. Ehlert, M. Stahn, S. Spicher, S. Grimme, J. Chem. Theory Comput.,
     2021, 17, 4250-4261. DOI: 10.1021/acs.jctc.1c00471
   
   for ddCOSMO and CPCM-X implicit solvation:
   * M. Stahn, S. Ehlert, S. Grimme, J. Phys. Chem. A,
     2023, XX, XXXX-XXXX. DOI: 10.1021/acs.jpca.3c04382
   
   for DFT-D4:
   * E. Caldeweyher, C. Bannwarth and S. Grimme, J. Chem. Phys., 2017,
     147, 034112. DOI: 10.1063/1.4993215
   * E. Caldeweyher, S. Ehlert, A. Hansen, H. Neugebauer, S. Spicher,
     C. Bannwarth and S. Grimme, J. Chem. Phys., 2019, 150, 154122.
     DOI: 10.1063/1.5090222
   * E. Caldeweyher, J.-M. Mewes, S. Ehlert and S. Grimme, Phys. Chem. Chem. Phys.
     2020, 22, 8499-8512. DOI: 10.1039/D0CP00502A
   
   for sTDA-xTB:
   * S. Grimme and C. Bannwarth, J. Chem. Phys., 2016, 145, 054103.
     DOI: 10.1063/1.4959605
   
   in the mass-spec context:
   * V. Asgeirsson, C. Bauer and S. Grimme, Chem. Sci., 2017, 8, 4879.
     DOI: 10.1039/c7sc00601b
   * J. Koopman and S. Grimme, ACS Omega 2019, 4, 12, 15120-15133.
     DOI: 10.1021/acsomega.9b02011
   
   for metadynamics refer to:
   * S. Grimme, J. Chem. Theory Comput., 2019, 155, 2847-2862
     DOI: 10.1021/acs.jctc.9b00143
   
   for SPH calculations refer to:
   * S. Spicher and S. Grimme, J. Chem. Theory Comput., 2021, 17, 1701-1714
     DOI: 10.1021/acs.jctc.0c01306
   
   for ONIOM refer to:
   * C. Plett, A. Katbashev, S. Ehlert, S. Grimme, M. Bursch,
     Phys. Chem. Chem. Phys., 2023, 25, 17860-17868. DOI: 10.1039/D3CP02178E
   
   for DIPRO refer to:
   * J. Kohn, N. Gildemeister, S. Grimme, D. Fazzi, A. Hansen,
     J. Chem. Phys., 2023, just accepted.
   
   for PTB refer to:
   * S. Grimme, M. Mueller, A. Hansen, J. Chem. Phys., 2023, 158, 124111.
     DOI: 10.1063/5.0137838
   
   with help from (in alphabetical order)
   P. Atkinson, C. Bannwarth, F. Bohle, G. Brandenburg, E. Caldeweyher
   M. Checinski, S. Dohm, S. Ehlert, S. Ehrlich, I. Gerasimov, C. Hölzer
   A. Katbashev, J. Kohn, J. Koopman, C. Lavigne, S. Lehtola, F. März, M. Müller,
   F. Musil, H. Neugebauer, J. Pisarek, C. Plett, P. Pracht, F. Pultar,
   J. Seibert, P. Shushkov, S. Spicher, M. Stahn, M. Steiner, T. Strunk,
   J. Stückrath, T. Rose, and J. Unsleber
   
 * started run on 2025/09/15 at 14:52:49.158     
   ID    Z sym.   atoms
    1    6 C      1-16
    2    1 H      17-35

           -------------------------------------------------
          |                Calculation Setup                |
           -------------------------------------------------

          program call               : /home/paufv/miniforge3/envs/htvs/bin/xtb gfn_opt.xyz --opt normal --parallel 4 --chrg 0 --uhf 0 --gfn2 --input xtb.inp
          coordinate file            : gfn_opt.xyz
          omp threads                :                     4

########################################################################
[WARNING] Please study the warnings concerning your input carefully
-3- set_opt: the key 'uhf' is not recognized by opt
-2- set_opt: the key 'charge' is not recognized by opt
-1- set_opt: the key 'method' is not recognized by opt
########################################################################

           -------------------------------------------------
          |                 G F N 2 - x T B                 |
           -------------------------------------------------

        Reference                      10.1021/acs.jctc.8b01176
      * Hamiltonian:
        H0-scaling (s, p, d)           1.850000    2.230000    2.230000
        zeta-weighting                 0.500000
      * Dispersion:
        s8                             2.700000
        a1                             0.520000
        a2                             5.000000
        s9                             5.000000
      * Repulsion:
        kExp                           1.500000    1.000000
        rExp                           1.000000
      * Coulomb:
        alpha                          2.000000
        third order                    shell-resolved
        anisotropic                    true
        a3                             3.000000
        a5                             4.000000
        cn-shift                       1.200000
        cn-exp                         4.000000
        max-rad                        5.000000

q/qsh data taken from xtbrestart
CAMM data taken from xtbrestart

          ...................................................
          :                      SETUP                      :
          :.................................................:
          :  # basis functions                  83          :
          :  # atomic orbitals                  83          :
          :  # shells                           51          :
          :  # electrons                        83          :
          :  max. iterations                   250          :
          :  Hamiltonian                  GFN2-xTB          :
          :  restarted?                       true          :
          :  GBSA solvation                  false          :
          :  PC potential                    false          :
          :  electronic temp.          300.0000000     K    :
          :  accuracy                    1.0000000          :
          :  -> integral cutoff          0.2500000E+02      :
          :  -> integral neglect         0.1000000E-07      :
          :  -> SCF convergence          0.1000000E-05 Eh   :
          :  -> wf. convergence          0.1000000E-03 e    :
          :  Broyden damping             0.4000000          :
          :  net charge                          0          :
          :  unpaired electrons                  0          :
          ...................................................

 iter      E             dE          RMSdq      gap      omega  full diag
   1    -44.6012373 -0.446012E+02  0.333E+00    2.15       0.0  T
   2    -44.6065337 -0.529634E-02  0.196E+00    2.14       1.0  T
   3    -44.5959844  0.105493E-01  0.584E-01    2.14       1.0  T
   4    -44.6086054 -0.126210E-01  0.133E-01    2.15       1.0  T
   5    -44.6088575 -0.252129E-03  0.751E-02    2.12       1.0  T
   6    -44.6089358 -0.782897E-04  0.303E-02    2.14       1.0  T
   7    -44.6089478 -0.120537E-04  0.102E-02    2.14       1.7  T
   8    -44.6089498 -0.197942E-05  0.366E-03    2.14       4.6  T
   9    -44.6089500 -0.201606E-06  0.170E-03    2.14       9.9  T
  10    -44.6089500 -0.379597E-07  0.894E-04    2.14      18.9  T
  11    -44.6089501 -0.133539E-07  0.235E-04    2.14      71.9  T

   *** convergence criteria satisfied after 11 iterations ***

         #    Occupation            Energy/Eh            Energy/eV
      -------------------------------------------------------------
         1        2.0000           -0.6382573             -17.3679
       ...           ...                  ...                  ...
        36        2.0000           -0.4170578             -11.3487
        37        2.0000           -0.4107553             -11.1772
        38        2.0000           -0.4051642             -11.0251
        39        2.0000           -0.3976786             -10.8214
        40        2.0000           -0.3953095             -10.7569
        41        2.0000           -0.3896519             -10.6030
        42        1.0000           -0.3003930              -8.1741 (HOMO)
        43                         -0.2217669              -6.0346 (LUMO)
        44                         -0.2201677              -5.9911
        45                         -0.2018903              -5.4937
        46                         -0.1307195              -3.5571
        47                         -0.0960589              -2.6139
       ...                                ...                  ...
        83                          0.6333634              17.2347
      -------------------------------------------------------------
                  HL-Gap            0.0786261 Eh            2.1395 eV
             Fermi-level           -0.3030512 Eh           -8.2464 eV

 SCC (total)                   0 d,  0 h,  0 min,  0.027 sec
 SCC setup                      ...        0 min,  0.000 sec (  0.537%)
 Dispersion                     ...        0 min,  0.000 sec (  1.461%)
 classical contributions        ...        0 min,  0.000 sec (  0.238%)
 integral evaluation            ...        0 min,  0.002 sec (  6.239%)
 iterations                     ...        0 min,  0.020 sec ( 75.123%)
 molecular gradient             ...        0 min,  0.004 sec ( 15.313%)
 printout                       ...        0 min,  0.000 sec (  1.048%)

         :::::::::::::::::::::::::::::::::::::::::::::::::::::
         ::                     SUMMARY                     ::
         :::::::::::::::::::::::::::::::::::::::::::::::::::::
         :: total energy             -43.870563519288 Eh    ::
         :: gradient norm              0.073076904191 Eh/a0 ::
         :: HOMO-LUMO gap              2.139524735249 eV    ::
         ::.................................................::
         :: SCC energy               -44.608501482876 Eh    ::
         :: -> isotropic ES            0.004194665148 Eh    ::
         :: -> anisotropic ES          0.009592517589 Eh    ::
         :: -> anisotropic XC          0.029781539000 Eh    ::
         :: -> dispersion             -0.035250536236 Eh    ::
         :: repulsion energy           0.737937963588 Eh    ::
         :: add. restraining           0.000000000000 Eh    ::
         :: total charge               0.000000000000 e     ::
         :::::::::::::::::::::::::::::::::::::::::::::::::::::

      ----------------------------------------------------------- 
     |                   =====================                   |
     |                        A N C O P T                        |
     |                   =====================                   |
     |               Approximate Normal Coordinate               |
     |                Rational Function Optimizer                |
      ----------------------------------------------------------- 
      ----------------------------------------------------------- 
     |                   =====================                   |
     |                        A N C O P T                        |
     |                   =====================                   |
     |               Approximate Normal Coordinate               |
     |                Rational Function Optimizer                |
      ----------------------------------------------------------- 

          ...................................................
          :                      SETUP                      :
          :.................................................:
          :   optimization level            normal          :
          :   max. optcycles                   200          :
          :   ANC micro-cycles                  20          :
          :   degrees of freedom                99          :
          :.................................................:
          :   RF solver                   davidson          :
          :   write xtbopt.log                true          :
          :   linear?                        false          :
          :   energy convergence         0.5000000E-05 Eh   :
          :   grad. convergence          0.1000000E-02 Eh/α :
          :   maxmium RF displ.          1.0000000          :
          :   Hlow (freq-cutoff)         0.1000000E-01      :
          :   Hmax (freq-cutoff)         5.0000000          :
          :   S6 in model hess.         20.0000000          :
          ...................................................

generating ANC from exact Hessian ...
Using Lindh-Hessian (1995)
 Shifting diagonal of input Hessian by    9.5488409897082557E-003
 Lowest  eigenvalues of input Hessian
    0.000000    0.000000    0.000000    0.000000    0.000000    0.000000
    0.010000    0.010445    0.010602    0.011272    0.012371    0.012610
    0.013062    0.015801    0.016119    0.016774    0.018206    0.019453
 Highest eigenvalues
    1.695488    1.823449    1.832222    1.905685    1.927289    1.937963


........................................................................
.............................. CYCLE    1 ..............................
........................................................................

 iter      E             dE          RMSdq      gap      omega  full diag
   1    -44.6089501 -0.446090E+02  0.124E-04    2.14       0.0  T
   2    -44.6089501 -0.500933E-10  0.796E-05    2.14     212.3  T
   3    -44.6089501 -0.772360E-11  0.538E-05    2.14     314.2  T
     SCC iter.                  ...        0 min,  0.003 sec
     gradient                   ...        0 min,  0.003 sec
 * total energy  :   -43.8705635 Eh     change       -0.6632206E-09 Eh
   gradient norm :     0.0730771 Eh/α   predicted     0.0000000E+00 (-100.00%)
   displ. norm   :     0.3228713 α      lambda       -0.1178488E-01
   maximum displ.:     0.1242559 α      in ANC's #21, #56, #30, ...

........................................................................
.............................. CYCLE    2 ..............................
........................................................................

 iter      E             dE          RMSdq      gap      omega  full diag
   1    -44.6483845 -0.446484E+02  0.215E-01    2.18       0.0  T
   2    -44.6484004 -0.158947E-04  0.130E-01    2.19       1.0  T
   3    -44.6482963  0.104073E-03  0.533E-02    2.18       1.0  T
   4    -44.6484144 -0.118034E-03  0.783E-03    2.19       2.2  T
   5    -44.6484160 -0.162702E-05  0.302E-03    2.19       5.6  T
   6    -44.6484160 -0.438766E-07  0.129E-03    2.19      13.1  T
   7    -44.6484160 -0.204946E-07  0.507E-04    2.19      33.3  T
   8    -44.6484161 -0.503653E-08  0.186E-04    2.19      90.8  T
     SCC iter.                  ...        0 min,  0.007 sec
     gradient                   ...        0 min,  0.003 sec
 * total energy  :   -43.8785697 Eh     change       -0.8006200E-02 Eh
   gradient norm :     0.0317773 Eh/α   predicted    -0.6509490E-02 ( -18.69%)
   displ. norm   :     0.2772104 α      lambda       -0.3213176E-02
   maximum displ.:     0.1018098 α      in ANC's #5, #12, #10, ...

........................................................................
.............................. CYCLE    3 ..............................
........................................................................

 iter      E             dE          RMSdq      gap      omega  full diag
   1    -44.6669226 -0.446669E+02  0.143E-01    2.19       0.0  T
   2    -44.6669305 -0.782813E-05  0.867E-02    2.20       1.0  T
   3    -44.6669106  0.198131E-04  0.253E-02    2.20       1.0  T
   4    -44.6669339 -0.232129E-04  0.410E-03    2.20       4.1  T
   5    -44.6669342 -0.343846E-06  0.197E-03    2.20       8.6  T
   6    -44.6669342 -0.376982E-07  0.872E-04    2.20      19.4  T
   7    -44.6669343 -0.147494E-07  0.289E-04    2.20      58.4  T
     SCC iter.                  ...        0 min,  0.006 sec
     gradient                   ...        0 min,  0.003 sec
 * total energy  :   -43.8804111 Eh     change       -0.1841405E-02 Eh
   gradient norm :     0.0082938 Eh/α   predicted    -0.1730882E-02 (  -6.00%)
   displ. norm   :     0.1670082 α      lambda       -0.4668137E-03
   maximum displ.:     0.0870673 α      in ANC's #5, #10, #12, ...

........................................................................
.............................. CYCLE    4 ..............................
........................................................................

 iter      E             dE          RMSdq      gap      omega  full diag
   1    -44.6668546 -0.446669E+02  0.686E-02    2.20       0.0  T
   2    -44.6668552 -0.640623E-06  0.414E-02    2.20       1.0  T
   3    -44.6668445  0.107592E-04  0.164E-02    2.20       1.0  T
   4    -44.6668564 -0.119460E-04  0.141E-03    2.20      12.0  T
   5    -44.6668565 -0.355243E-07  0.726E-04    2.20      23.3  T
   6    -44.6668565 -0.651958E-08  0.249E-04    2.20      67.8  T
     SCC iter.                  ...        0 min,  0.005 sec
     gradient                   ...        0 min,  0.003 sec
 * total energy  :   -43.8807378 Eh     change       -0.3267181E-03 Eh
   gradient norm :     0.0044465 Eh/α   predicted    -0.2399256E-03 ( -26.56%)
   displ. norm   :     0.1689904 α      lambda       -0.2288977E-03
   maximum displ.:     0.1019520 α      in ANC's #5, #3, #10, ...

........................................................................
.............................. CYCLE    5 ..............................
........................................................................

 iter      E             dE          RMSdq      gap      omega  full diag
   1    -44.6657749 -0.446658E+02  0.581E-02    2.20       0.0  T
   2    -44.6657754 -0.442494E-06  0.344E-02    2.20       1.0  T
   3    -44.6657716  0.382468E-05  0.101E-02    2.20       1.7  T
   4    -44.6657758 -0.425314E-05  0.111E-03    2.20      15.2  T
   5    -44.6657758 -0.231296E-07  0.534E-04    2.20      31.7  T
   6    -44.6657758 -0.218981E-08  0.215E-04    2.20      78.8  T
     SCC iter.                  ...        0 min,  0.005 sec
     gradient                   ...        0 min,  0.003 sec
 * total energy  :   -43.8808772 Eh     change       -0.1393843E-03 Eh
   gradient norm :     0.0024150 Eh/α   predicted    -0.1177176E-03 ( -15.54%)
   displ. norm   :     0.0916675 α      lambda       -0.5441823E-04
   maximum displ.:     0.0538608 α      in ANC's #5, #3, #1, ...

........................................................................
.............................. CYCLE    6 ..............................
........................................................................

 iter      E             dE          RMSdq      gap      omega  full diag
   1    -44.6656966 -0.446657E+02  0.252E-02    2.20       0.0  T
   2    -44.6656967 -0.813406E-07  0.148E-02    2.20       1.1  T
   3    -44.6656964  0.279767E-06  0.288E-03    2.21       5.9  T
   4    -44.6656967 -0.316041E-06  0.557E-04    2.21      30.3  T
   5    -44.6656967 -0.778186E-08  0.235E-04    2.21      72.0  T
     SCC iter.                  ...        0 min,  0.004 sec
     gradient                   ...        0 min,  0.003 sec
 * total energy  :   -43.8809199 Eh     change       -0.4266869E-04 Eh
   gradient norm :     0.0018603 Eh/α   predicted    -0.2744579E-04 ( -35.68%)
   displ. norm   :     0.1884847 α      lambda       -0.6196541E-04
   maximum displ.:     0.1100655 α      in ANC's #3, #5, #1, ...

........................................................................
.............................. CYCLE    7 ..............................
........................................................................

 iter      E             dE          RMSdq      gap      omega  full diag
   1    -44.6659207 -0.446659E+02  0.561E-02    2.21       0.0  T
   2    -44.6659209 -0.220022E-06  0.330E-02    2.21       1.0  T
   3    -44.6659202  0.730428E-06  0.458E-03    2.21       3.7  T
   4    -44.6659210 -0.839118E-06  0.928E-04    2.21      18.2  T
   5    -44.6659210 -0.193230E-07  0.393E-04    2.21      43.1  T
     SCC iter.                  ...        0 min,  0.005 sec
     gradient                   ...        0 min,  0.003 sec
 * total energy  :   -43.8809825 Eh     change       -0.6257767E-04 Eh
   gradient norm :     0.0020889 Eh/α   predicted    -0.3147292E-04 ( -49.71%)
   displ. norm   :     0.0991162 α      lambda       -0.3607851E-04
   maximum displ.:     0.0573511 α      in ANC's #3, #1, #2, ...

........................................................................
.............................. CYCLE    8 ..............................
........................................................................

 iter      E             dE          RMSdq      gap      omega  full diag
   1    -44.6661612 -0.446662E+02  0.293E-02    2.21       0.0  T
   2    -44.6661613 -0.547693E-07  0.172E-02    2.21       1.0  T
   3    -44.6661612  0.131321E-06  0.186E-03    2.21       9.1  T
   4    -44.6661613 -0.160072E-06  0.325E-04    2.21      51.9  T
   5    -44.6661613 -0.155487E-08  0.192E-04    2.21      87.9  T
     SCC iter.                  ...        0 min,  0.004 sec
     gradient                   ...        0 min,  0.003 sec
 * total energy  :   -43.8810132 Eh     change       -0.3070262E-04 Eh
   gradient norm :     0.0014955 Eh/α   predicted    -0.1821809E-04 ( -40.66%)
   displ. norm   :     0.2574590 α      lambda       -0.5266863E-04
   maximum displ.:     0.1433716 α      in ANC's #3, #1, #2, ...

........................................................................
.............................. CYCLE    9 ..............................
........................................................................

 iter      E             dE          RMSdq      gap      omega  full diag
   1    -44.6662811 -0.446663E+02  0.746E-02    2.21       0.0  T
   2    -44.6662815 -0.364758E-06  0.438E-02    2.22       1.0  T
   3    -44.6662806  0.900561E-06  0.485E-03    2.21       3.5  T
   4    -44.6662817 -0.109552E-05  0.771E-04    2.22      21.9  T
   5    -44.6662817 -0.785565E-08  0.460E-04    2.22      36.8  T
   6    -44.6662817 -0.188717E-08  0.203E-04    2.22      83.3  T
     SCC iter.                  ...        0 min,  0.005 sec
     gradient                   ...        0 min,  0.003 sec
 * total energy  :   -43.8810602 Eh     change       -0.4700244E-04 Eh
   gradient norm :     0.0013934 Eh/α   predicted    -0.2711116E-04 ( -42.32%)
   displ. norm   :     0.1022555 α      lambda       -0.1398976E-04
   maximum displ.:     0.0596479 α      in ANC's #1, #2, #3, ...

........................................................................
.............................. CYCLE   10 ..............................
........................................................................

 iter      E             dE          RMSdq      gap      omega  full diag
   1    -44.6665234 -0.446665E+02  0.252E-02    2.22       0.0  T
   2    -44.6665234 -0.491918E-07  0.148E-02    2.22       1.1  T
   3    -44.6665233  0.109840E-06  0.178E-03    2.22       9.5  T
   4    -44.6665234 -0.133873E-06  0.292E-04    2.22      57.9  T
   5    -44.6665234 -0.102171E-08  0.176E-04    2.22      96.1  T
     SCC iter.                  ...        0 min,  0.004 sec
     gradient                   ...        0 min,  0.003 sec
 * total energy  :   -43.8810765 Eh     change       -0.1633554E-04 Eh
   gradient norm :     0.0009297 Eh/α   predicted    -0.7031009E-05 ( -56.96%)
   displ. norm   :     0.1012059 α      lambda       -0.1509286E-04
   maximum displ.:     0.0615375 α      in ANC's #1, #2, #6, ...

........................................................................
.............................. CYCLE   11 ..............................
........................................................................

 iter      E             dE          RMSdq      gap      omega  full diag
   1    -44.6666978 -0.446667E+02  0.263E-02    2.22       0.0  T
   2    -44.6666979 -0.487077E-07  0.155E-02    2.22       1.1  T
   3    -44.6666978  0.868093E-07  0.165E-03    2.22      10.2  T
   4    -44.6666979 -0.108901E-06  0.356E-04    2.22      47.5  T
   5    -44.6666979 -0.185826E-08  0.202E-04    2.22      83.5  T
     SCC iter.                  ...        0 min,  0.004 sec
     gradient                   ...        0 min,  0.003 sec
 * total energy  :   -43.8810921 Eh     change       -0.1561381E-04 Eh
   gradient norm :     0.0006099 Eh/α   predicted    -0.7581286E-05 ( -51.44%)
   displ. norm   :     0.0849322 α      lambda       -0.1000299E-04
   maximum displ.:     0.0535264 α      in ANC's #2, #1, #6, ...

........................................................................
.............................. CYCLE   12 ..............................
........................................................................

 iter      E             dE          RMSdq      gap      omega  full diag
   1    -44.6664630 -0.446665E+02  0.205E-02    2.22       0.0  T
   2    -44.6664630 -0.279259E-07  0.120E-02    2.22       1.4  T
   3    -44.6664629  0.777412E-07  0.153E-03    2.22      11.0  T
   4    -44.6664630 -0.907976E-07  0.294E-04    2.22      57.4  T
   5    -44.6664630 -0.168513E-08  0.151E-04    2.22     111.6  T
     SCC iter.                  ...        0 min,  0.004 sec
     gradient                   ...        0 min,  0.003 sec
 * total energy  :   -43.8811028 Eh     change       -0.1072076E-04 Eh
   gradient norm :     0.0007676 Eh/α   predicted    -0.5024041E-05 ( -53.14%)
   displ. norm   :     0.0729358 α      lambda       -0.7750928E-05
   maximum displ.:     0.0476240 α      in ANC's #2, #1, #6, ...

........................................................................
.............................. CYCLE   13 ..............................
........................................................................

 iter      E             dE          RMSdq      gap      omega  full diag
   1    -44.6664832 -0.446665E+02  0.158E-02    2.22       0.0  T
   2    -44.6664832 -0.183194E-07  0.930E-03    2.22       1.8  T
   3    -44.6664831  0.763397E-07  0.145E-03    2.22      11.6  T
   4    -44.6664832 -0.878672E-07  0.260E-04    2.22      65.0  T
   5    -44.6664832 -0.118185E-08  0.137E-04    2.22     123.8  T
     SCC iter.                  ...        0 min,  0.004 sec
     gradient                   ...        0 min,  0.003 sec
 * total energy  :   -43.8811129 Eh     change       -0.1000714E-04 Eh
   gradient norm :     0.0007487 Eh/α   predicted    -0.3884931E-05 ( -61.18%)
   displ. norm   :     0.1102805 α      lambda       -0.1198818E-04
   maximum displ.:     0.0722026 α      in ANC's #2, #1, #4, ...

........................................................................
.............................. CYCLE   14 ..............................
........................................................................

 iter      E             dE          RMSdq      gap      omega  full diag
   1    -44.6664075 -0.446664E+02  0.221E-02    2.22       0.0  T
   2    -44.6664075 -0.373655E-07  0.130E-02    2.22       1.3  T
   3    -44.6664071  0.362652E-06  0.314E-03    2.22       5.4  T
   4    -44.6664075 -0.404476E-06  0.379E-04    2.22      44.6  T
   5    -44.6664075 -0.219624E-08  0.208E-04    2.22      81.3  T
     SCC iter.                  ...        0 min,  0.004 sec
     gradient                   ...        0 min,  0.003 sec
 * total energy  :   -43.8811274 Eh     change       -0.1459243E-04 Eh
   gradient norm :     0.0004961 Eh/α   predicted    -0.6028874E-05 ( -58.68%)
   displ. norm   :     0.1432821 α      lambda       -0.1259453E-04
   maximum displ.:     0.0950277 α      in ANC's #2, #1, #4, ...

........................................................................
.............................. CYCLE   15 ..............................
........................................................................

 iter      E             dE          RMSdq      gap      omega  full diag
   1    -44.6663701 -0.446664E+02  0.286E-02    2.22       0.0  T
   2    -44.6663702 -0.686953E-07  0.168E-02    2.22       1.0  T
   3    -44.6663698  0.392869E-06  0.333E-03    2.22       5.1  T
   4    -44.6663702 -0.444804E-06  0.495E-04    2.22      34.1  T
   5    -44.6663702 -0.389322E-08  0.270E-04    2.22      62.5  T
     SCC iter.                  ...        0 min,  0.004 sec
     gradient                   ...        0 min,  0.003 sec
 * total energy  :   -43.8811414 Eh     change       -0.1397732E-04 Eh
   gradient norm :     0.0005369 Eh/α   predicted    -0.6355894E-05 ( -54.53%)
   displ. norm   :     0.1283237 α      lambda       -0.8363844E-05
   maximum displ.:     0.0874891 α      in ANC's #2, #1, #4, ...

........................................................................
.............................. CYCLE   16 ..............................
........................................................................

 iter      E             dE          RMSdq      gap      omega  full diag
   1    -44.6664485 -0.446664E+02  0.250E-02    2.22       0.0  T
   2    -44.6664485 -0.532077E-07  0.147E-02    2.22       1.2  T
   3    -44.6664483  0.208544E-06  0.252E-03    2.22       6.7  T
   4    -44.6664486 -0.241276E-06  0.428E-04    2.22      39.5  T
   5    -44.6664486 -0.275656E-08  0.242E-04    2.22      69.9  T
     SCC iter.                  ...        0 min,  0.004 sec
     gradient                   ...        0 min,  0.003 sec
 * total energy  :   -43.8811512 Eh     change       -0.9779572E-05 Eh
   gradient norm :     0.0004596 Eh/α   predicted    -0.4215773E-05 ( -56.89%)
   displ. norm   :     0.1219450 α      lambda       -0.6982463E-05
   maximum displ.:     0.0843293 α      in ANC's #2, #1, #6, ...

........................................................................
.............................. CYCLE   17 ..............................
........................................................................

 iter      E             dE          RMSdq      gap      omega  full diag
   1    -44.6664395 -0.446664E+02  0.234E-02    2.22       0.0  T
   2    -44.6664396 -0.476147E-07  0.138E-02    2.22       1.2  T
   3    -44.6664395  0.116846E-06  0.193E-03    2.22       8.7  T
   4    -44.6664396 -0.141237E-06  0.377E-04    2.22      44.9  T
   5    -44.6664396 -0.144352E-08  0.230E-04    2.22      73.5  T
     SCC iter.                  ...        0 min,  0.004 sec
     gradient                   ...        0 min,  0.003 sec
 * total energy  :   -43.8811600 Eh     change       -0.8753867E-05 Eh
   gradient norm :     0.0004579 Eh/α   predicted    -0.3515991E-05 ( -59.83%)
   displ. norm   :     0.1619336 α      lambda       -0.8698956E-05
   maximum displ.:     0.1119272 α      in ANC's #2, #1, #11, ...

........................................................................
.............................. CYCLE   18 ..............................
........................................................................

 iter      E             dE          RMSdq      gap      omega  full diag
   1    -44.6664755 -0.446665E+02  0.301E-02    2.22       0.0  T
   2    -44.6664756 -0.724457E-07  0.177E-02    2.22       1.0  T
   3    -44.6664755  0.121591E-06  0.198E-03    2.22       8.5  T
   4    -44.6664756 -0.158358E-06  0.380E-04    2.22      44.5  T
   5    -44.6664756  0.133397E-09  0.225E-04    2.22      75.1  T
     SCC iter.                  ...        0 min,  0.004 sec
     gradient                   ...        0 min,  0.003 sec
 * total energy  :   -43.8811704 Eh     change       -0.1040529E-04 Eh
   gradient norm :     0.0004028 Eh/α   predicted    -0.4400866E-05 ( -57.71%)
   displ. norm   :     0.2038496 α      lambda       -0.9136703E-05
   maximum displ.:     0.1401777 α      in ANC's #2, #1, #9, ...

........................................................................
.............................. CYCLE   19 ..............................
........................................................................

 iter      E             dE          RMSdq      gap      omega  full diag
   1    -44.6662745 -0.446663E+02  0.371E-02    2.22       0.0  T
   2    -44.6662746 -0.110203E-06  0.218E-02    2.22       1.0  T
   3    -44.6662744  0.185200E-06  0.247E-03    2.22       6.8  T
   4    -44.6662746 -0.238500E-06  0.523E-04    2.22      32.3  T
   5    -44.6662746 -0.336570E-09  0.348E-04    2.22      48.6  T
     SCC iter.                  ...        0 min,  0.004 sec
     gradient                   ...        0 min,  0.003 sec
 * total energy  :   -43.8811802 Eh     change       -0.9846230E-05 Eh
   gradient norm :     0.0005970 Eh/α   predicted    -0.4653546E-05 ( -52.74%)
   displ. norm   :     0.1895559 α      lambda       -0.7089317E-05
   maximum displ.:     0.1295258 α      in ANC's #2, #1, #9, ...

........................................................................
.............................. CYCLE   20 ..............................
........................................................................

 iter      E             dE          RMSdq      gap      omega  full diag
   1    -44.6663199 -0.446663E+02  0.342E-02    2.22       0.0  T
   2    -44.6663200 -0.790232E-07  0.201E-02    2.22       1.0  T
   3    -44.6663198  0.177362E-06  0.232E-03    2.22       7.3  T
   4    -44.6663200 -0.222131E-06  0.462E-04    2.22      36.5  T
   5    -44.6663200  0.191015E-09  0.317E-04    2.22      53.3  T
     SCC iter.                  ...        0 min,  0.004 sec
     gradient                   ...        0 min,  0.003 sec
 * total energy  :   -43.8811876 Eh     change       -0.7356116E-05 Eh
   gradient norm :     0.0006757 Eh/α   predicted    -0.3603682E-05 ( -51.01%)
   displ. norm   :     0.1521139 α      lambda       -0.5875771E-05
   maximum displ.:     0.1026333 α      in ANC's #2, #1, #7, ...
 * RMSD in coord.:     0.3749264 α      energy gain  -0.1062405E-01 Eh

generating ANC from exact Hessian ...
Using Lindh-Hessian (1995)
 Shifting diagonal of input Hessian by    9.5031391337395514E-003
 Lowest  eigenvalues of input Hessian
    0.000000    0.000000    0.000000    0.000000    0.000000    0.000000
    0.010000    0.010506    0.010685    0.011472    0.012659    0.012904
    0.013546    0.016354    0.016767    0.017469    0.019069    0.020034
 Highest eigenvalues
    1.747159    1.896852    1.929229    1.967278    2.000488    2.028186


........................................................................
.............................. CYCLE   21 ..............................
........................................................................

 iter      E             dE          RMSdq      gap      omega  full diag
   1    -44.6666001 -0.446666E+02  0.275E-02    2.23       0.0  T
   2    -44.6666001 -0.497569E-07  0.162E-02    2.23       1.0  T
   3    -44.6666000  0.125018E-06  0.197E-03    2.22       8.6  T
   4    -44.6666002 -0.152352E-06  0.429E-04    2.23      39.4  T
   5    -44.6666002 -0.114464E-08  0.273E-04    2.23      61.9  T
     SCC iter.                  ...        0 min,  0.004 sec
     gradient                   ...        0 min,  0.003 sec
 * total energy  :   -43.8811941 Eh     change       -0.6512689E-05 Eh
   gradient norm :     0.0006257 Eh/α   predicted     0.0000000E+00 (-100.00%)
   displ. norm   :     0.0204663 α      lambda       -0.4484625E-06
   maximum displ.:     0.0145986 α      in ANC's #4, #7, #1, ...

........................................................................
.............................. CYCLE   22 ..............................
........................................................................

 iter      E             dE          RMSdq      gap      omega  full diag
   1    -44.6665864 -0.446666E+02  0.562E-03    2.23       0.0  T
   2    -44.6665864 -0.627961E-08  0.332E-03    2.23       5.1  T
   3    -44.6665864  0.101724E-07  0.558E-04    2.23      30.3  T
   4    -44.6665864 -0.116756E-07  0.174E-04    2.23      96.9  T
     SCC iter.                  ...        0 min,  0.003 sec
     gradient                   ...        0 min,  0.003 sec
 * total energy  :   -43.8811978 Eh     change       -0.3678554E-05 Eh
   gradient norm :     0.0002590 Eh/α   predicted    -0.1544585E-05 ( -58.01%)
   displ. norm   :     0.0547386 α      lambda       -0.5614741E-05
   maximum displ.:     0.0371766 α      in ANC's #4, #7, #1, ...

   *** GEOMETRY OPTIMIZATION CONVERGED AFTER 22 ITERATIONS ***

------------------------------------------------------------------------
 total energy gain   :        -0.0106342 Eh       -6.6731 kcal/mol
 total RMSD          :         0.3746474 a0        0.1983 Å
 total power (kW/mol):        -1.2690995 (step) -123.5586 (real)
------------------------------------------------------------------------

 ANCopt (total)                0 d,  0 h,  0 min,  0.226 sec
 optimizer setup                ...        0 min,  0.000 sec (  0.031%)
 model hessian                  ...        0 min,  0.023 sec ( 10.384%)
 ANC generation                 ...        0 min,  0.002 sec (  0.671%)
 coordinate transformation      ...        0 min,  0.000 sec (  0.059%)
 single point calculation       ...        0 min,  0.198 sec ( 87.475%)
 optimization log               ...        0 min,  0.001 sec (  0.655%)
 hessian update                 ...        0 min,  0.000 sec (  0.083%)
 rational function              ...        0 min,  0.001 sec (  0.420%)

================
 final structure:
================
35
 xtb: 6.7.1 (edcfbbe)
C           -2.89392449127368       -2.14348266649908        0.13633088456455
C           -2.72428111648413       -0.80323599855652        0.85813779769417
C           -2.07752495589319        0.24017638755946       -0.00338661507722
C           -2.75960042499367        1.36494961950015       -0.36368745931854
C           -2.22429805981080        2.32681717693099       -1.22683945962688
C           -0.96459609944743        2.10717920334652       -1.80377828103925
C           -0.23297734431724        1.01254467069185       -1.48353543335269
C           -0.66868942192166        0.02186502744882       -0.46063028832270
C            0.32625264037673        0.03381463052723        0.76821677827016
C            0.24499994782994        1.36492964676585        1.50704907683997
C            1.70878897718417       -0.32223576152105        0.29727756351786
C            2.65462947879217        0.63619070865818       -0.04865287003805
C            3.90463960365829        0.26155781633524       -0.50920737182145
C            4.23208727883469       -1.07703817662461       -0.63652824515455
C            3.29846306048556       -2.04165452824585       -0.29774467185725
C            2.05094186577545       -1.66483705960867        0.16321926534191
H           -3.43481880989819       -2.00322892003510       -0.79666679501765
H           -3.45384845031299       -2.83586077924056        0.76100693130888
H           -1.92972431914025       -2.59271714062053       -0.08827529468566
H           -2.13584425884567       -0.96866990872586        1.76570859143883
H           -3.70844792036693       -0.44460156674260        1.16746977115736
H           -3.76414358099983        1.51237570946870        0.01161192483526
H           -2.79355847559137        3.20729685494867       -1.47797968093292
H           -0.58713917175298        2.81506660377128       -2.52891384178293
H            0.72619740376877        0.83348314938946       -1.94630534078102
H           -0.57020131220136       -0.98871527897094       -0.88551852727805
H           -0.00304118115047       -0.76008027370723        1.44646071140744
H            1.01311628033154        1.41689254464440        2.27627899979169
H            0.37003031665175        2.20073900705143        0.82365112335270
H           -0.72919729321155        1.46681402024129        1.98021384884707
H            2.41795731052487        1.68508476461766        0.03916105164520
H            4.62707316574115        1.02109877394128       -0.77179253566459
H            5.20824012444050       -1.36710564947805       -0.99640289435548
H            3.54369379626192       -3.08976679976906       -0.39178504613561
H            1.32904543695370       -2.42574580748938        0.42873633222752

 Bond Distances (Angstroems)
 ---------------------------
C1-C2=1.5317         C1-H17=1.0875        C1-H18=1.0877        C1-H19=1.0872        C2-C1=1.5317         C2-C3=1.4997         
C2-H20=1.0942        C2-H21=1.0922        C3-C2=1.4997         C3-C4=1.3639         C3-C8=1.4972         C4-C3=1.3639         
C4-C5=1.3988         C4-H22=1.0824        C5-C4=1.3988         C5-C6=1.4028         C5-H23=1.0781        C6-C5=1.4028         
C6-C7=1.3550         C6-H24=1.0814        C7-C6=1.3550         C7-C8=1.4892         C7-H25=1.0799        C8-C3=1.4972         
C8-C7=1.4892         C8-C9=1.5812         C8-H26=1.1007        C9-C8=1.5812         C9-C10=1.5246        C9-C11=1.5033        
C9-H27=1.0949        C10-C9=1.5246        C10-H28=1.0883       C10-H29=1.0868       C10-H30=1.0878       C11-C9=1.5033        
C11-C12=1.3903       C11-C16=1.3920       C12-C11=1.3903       C12-C13=1.3838       C12-H31=1.0788       C13-C12=1.3838       
C13-C14=1.3839       C13-H32=1.0806       C14-C13=1.3839       C14-C15=1.3845       C14-H33=1.0801       C15-C14=1.3845       
C15-C16=1.3823       C15-H34=1.0805       C16-C11=1.3920       C16-C15=1.3823       C16-H35=1.0820       H17-C1=1.0875        
H18-C1=1.0877        H19-C1=1.0872        H20-C2=1.0942        H21-C2=1.0922        H22-C4=1.0824        H23-C5=1.0781        
H24-C6=1.0814        H25-C7=1.0799        H26-C8=1.1007        H27-C9=1.0949        H28-C10=1.0883       H29-C10=1.0868       
H30-C10=1.0878       H31-C12=1.0788       H32-C13=1.0806       H33-C14=1.0801       H34-C15=1.0805       H35-C16=1.0820       
 C  H  Rav=1.0859 sigma=0.0061  Rmin=1.0781  Rmax=1.1007    19
 C  C  Rav=1.4391 sigma=0.0696  Rmin=1.3550  Rmax=1.5812    17

 selected bond angles (degree)
 --------------------
H17-C1-C2=110.28               H18-C1-C2=110.08               H18-C1-H17=108.59              H19-C1-C2=111.14               
H19-C1-H17=108.49              H19-C1-H18=108.19              C3-C2-C1=112.70                H20-C2-C1=108.55               
H20-C2-C3=110.47               H21-C2-C1=108.72               H21-C2-C3=108.83               H21-C2-H20=107.42              
C4-C3-C2=120.65                C8-C3-C2=118.67                C8-C3-C4=120.67                C5-C4-C3=122.60                
H22-C4-C3=119.00               H22-C4-C5=118.39               C6-C5-C4=119.32                H23-C5-C4=120.21               
H23-C5-C6=120.41               C7-C6-C5=120.94                H24-C6-C5=119.13               H24-C6-C7=119.92               
C8-C7-C6=122.81                H25-C7-C6=120.81               H25-C7-C8=116.35               C7-C8-C3=112.84                
C9-C8-C3=110.71                C9-C8-C7=110.16                H26-C8-C3=109.63               H26-C8-C7=108.63               
H26-C8-C9=104.52               C10-C9-C8=110.47               C11-C9-C8=109.48               C11-C9-C10=114.06              
H27-C9-C8=106.66               H27-C9-C10=108.47              H27-C9-C11=107.39              H28-C10-C9=110.28              
H29-C10-C9=111.14              H29-C10-H28=109.06             H30-C10-C9=109.89              H30-C10-H28=108.67             
H30-C10-H29=107.73             

 selected dihedral angles (degree)
 ---------------------------------
C3-C2-C1-H17=305.44           C3-C2-C1-H18=185.64           C3-C2-C1-H19= 65.79           H20-C2-C1-H17=182.74          
H20-C2-C1-H18= 62.95          H20-C2-C1-H19=303.09          H21-C2-C1-H17= 66.18          H21-C2-C1-H18=306.39          
H21-C2-C1-H19=186.54          C4-C3-C2-C1=115.77            C4-C3-C2-H20=237.38           C4-C3-C2-H21=355.09           
C8-C3-C2-C1=295.81            C8-C3-C2-H20= 57.42           C8-C3-C2-H21=175.13           C5-C4-C3-C2=183.74            
C5-C4-C3-C8=  3.70            H22-C4-C3-C2=  2.25           H22-C4-C3-C8=182.21           C6-C5-C4-C3=  3.24            
C6-C5-C4-H22=184.73           H23-C5-C4-C3=180.64           H23-C5-C4-H22=  2.13          C7-C6-C5-C4=356.59            
C7-C6-C5-H23=179.19           H24-C6-C5-C4=175.32           H24-C6-C5-H23=357.93          C8-C7-C6-C5=356.56            
C8-C7-C6-H24=177.84           H25-C7-C6-C5=178.55           H25-C7-C6-H24=359.82          C7-C8-C3-C2=170.45            
C7-C8-C3-C4=350.49            C9-C8-C3-C2=294.44            C9-C8-C3-C4=114.48            H26-C8-C3-C2= 49.23           
H26-C8-C3-C4=229.27           C3-C8-C7-C6=  9.52            C3-C8-C7-H25=187.62           C9-C8-C7-C6=245.23            
C9-C8-C7-H25= 63.33           H26-C8-C7-C6=131.30           H26-C8-C7-H25=309.40          C10-C9-C8-C3=300.83           
C10-C9-C8-C7= 66.34           C10-C9-C8-H26=182.87          C11-C9-C8-C3=174.43           C11-C9-C8-C7=299.94           
C11-C9-C8-H26= 56.46          H27-C9-C8-C3= 58.53           H27-C9-C8-C7=184.04           H27-C9-C8-H26=300.56          
H28-C10-C9-C8=186.81          H28-C10-C9-C11=310.62         H28-C10-C9-H27= 70.24         H29-C10-C9-C8=307.88          
H29-C10-C9-C11= 71.69         H29-C10-C9-H27=191.31         H30-C10-C9-C8= 67.03          H30-C10-C9-C11=190.84         
H30-C10-C9-H27=310.46         
           -------------------------------------------------
          |                Final Singlepoint                |
           -------------------------------------------------

          ...................................................
          :                      SETUP                      :
          :.................................................:
          :  # basis functions                  83          :
          :  # atomic orbitals                  83          :
          :  # shells                           51          :
          :  # electrons                        83          :
          :  max. iterations                   250          :
          :  Hamiltonian                  GFN2-xTB          :
          :  restarted?                      false          :
          :  GBSA solvation                  false          :
          :  PC potential                    false          :
          :  electronic temp.          300.0000000     K    :
          :  accuracy                    1.0000000          :
          :  -> integral cutoff          0.2500000E+02      :
          :  -> integral neglect         0.1000000E-07      :
          :  -> SCF convergence          0.1000000E-05 Eh   :
          :  -> wf. convergence          0.1000000E-03 e    :
          :  Broyden damping             0.4000000          :
          :  net charge                          0          :
          :  unpaired electrons                  0          :
          ...................................................

 iter      E             dE          RMSdq      gap      omega  full diag
   1    -44.6665864 -0.446666E+02  0.699E-05    2.23       0.0  T
   2    -44.6665864 -0.144311E-10  0.430E-05    2.23     393.1  T
   3    -44.6665864 -0.265032E-11  0.276E-05    2.23     613.5  T

   *** convergence criteria satisfied after 3 iterations ***

         #    Occupation            Energy/Eh            Energy/eV
      -------------------------------------------------------------
         1        2.0000           -0.6425846             -17.4856
       ...           ...                  ...                  ...
        36        2.0000           -0.4170122             -11.3475
        37        2.0000           -0.4111419             -11.1877
        38        2.0000           -0.4063757             -11.0580
        39        2.0000           -0.3991289             -10.8608
        40        2.0000           -0.3930669             -10.6959
        41        2.0000           -0.3897104             -10.6046
        42        1.0000           -0.3003435              -8.1728 (HOMO)
        43                         -0.2185588              -5.9473 (LUMO)
        44                         -0.2174742              -5.9178
        45                         -0.2051114              -5.5814
        46                         -0.1229711              -3.3462
        47                         -0.0887736              -2.4157
       ...                                ...                  ...
        83                          0.6685080              18.1910
      -------------------------------------------------------------
                  HL-Gap            0.0817848 Eh            2.2255 eV
             Fermi-level           -0.3022391 Eh           -8.2243 eV

 SCC (total)                   0 d,  0 h,  0 min,  0.007 sec
 SCC setup                      ...        0 min,  0.000 sec (  0.884%)
 Dispersion                     ...        0 min,  0.000 sec (  1.361%)
 classical contributions        ...        0 min,  0.000 sec (  0.321%)
 integral evaluation            ...        0 min,  0.001 sec ( 13.721%)
 iterations                     ...        0 min,  0.003 sec ( 37.351%)
 molecular gradient             ...        0 min,  0.003 sec ( 42.850%)
 printout                       ...        0 min,  0.000 sec (  3.382%)

         :::::::::::::::::::::::::::::::::::::::::::::::::::::
         ::                     SUMMARY                     ::
         :::::::::::::::::::::::::::::::::::::::::::::::::::::
         :: total energy             -43.881197758611 Eh    ::
         :: gradient norm              0.000258979289 Eh/a0 ::
         :: HOMO-LUMO gap              2.225476536160 eV    ::
         ::.................................................::
         :: SCC energy               -44.666137206416 Eh    ::
         :: -> isotropic ES            0.004340375022 Eh    ::
         :: -> anisotropic ES          0.008880043366 Eh    ::
         :: -> anisotropic XC          0.028433894917 Eh    ::
         :: -> dispersion             -0.036243714405 Eh    ::
         :: repulsion energy           0.784939447805 Eh    ::
         :: add. restraining           0.000000000000 Eh    ::
         :: total charge               0.000000000000 e     ::
         :::::::::::::::::::::::::::::::::::::::::::::::::::::

           -------------------------------------------------
          |                Property Printout                |
           -------------------------------------------------

    * Orbital Energies and Occupations

         #    Occupation            Energy/Eh            Energy/eV
      -------------------------------------------------------------
         1        2.0000           -0.6425846             -17.4856
       ...           ...                  ...                  ...
        30        2.0000           -0.4528163             -12.3218
        31        2.0000           -0.4484670             -12.2034
        32        2.0000           -0.4404127             -11.9842
        33        2.0000           -0.4386893             -11.9373
        34        2.0000           -0.4316272             -11.7452
        35        2.0000           -0.4223528             -11.4928
        36        2.0000           -0.4170122             -11.3475
        37        2.0000           -0.4111419             -11.1877
        38        2.0000           -0.4063757             -11.0580
        39        2.0000           -0.3991289             -10.8608
        40        2.0000           -0.3930669             -10.6959
        41        2.0000           -0.3897104             -10.6046
        42        1.0000           -0.3003435              -8.1728 (HOMO)
        43                         -0.2185588              -5.9473 (LUMO)
        44                         -0.2174742              -5.9178
        45                         -0.2051114              -5.5814
        46                         -0.1229711              -3.3462
        47                         -0.0887736              -2.4157
        48                          0.0752426               2.0475
        49                          0.0835696               2.2740
        50                          0.0889108               2.4194
        51                          0.1041974               2.8354
        52                          0.1085639               2.9542
        53                          0.1218270               3.3151
       ...                                ...                  ...
        83                          0.6685080              18.1910
      -------------------------------------------------------------
                  HL-Gap            0.0817848 Eh            2.2255 eV
             Fermi-level           -0.3022391 Eh           -8.2243 eV

     #   Z          covCN         q      C6AA      α(0)
     1   6 C        3.752    -0.097    22.414     6.752
     2   6 C        3.805    -0.057    21.587     6.614
     3   6 C        2.956     0.000    28.016     8.682
     4   6 C        2.909    -0.039    28.971     8.826
     5   6 C        2.915    -0.044    29.098     8.846
     6   6 C        2.903    -0.032    28.806     8.800
     7   6 C        2.908    -0.041    29.019     8.833
     8   6 C        3.860    -0.015    20.800     6.486
     9   6 C        3.855    -0.016    20.817     6.489
    10   6 C        3.753    -0.100    22.474     6.760
    11   6 C        2.970     0.010    27.791     8.647
    12   6 C        2.924    -0.036    28.894     8.815
    13   6 C        2.919    -0.031    28.779     8.797
    14   6 C        2.920    -0.034    28.841     8.807
    15   6 C        2.918    -0.031    28.776     8.797
    16   6 C        2.927    -0.039    28.967     8.826
    17   1 H        0.925     0.036     2.509     2.477
    18   1 H        0.925     0.035     2.519     2.482
    19   1 H        0.925     0.033     2.543     2.494
    20   1 H        0.924     0.037     2.491     2.468
    21   1 H        0.924     0.034     2.526     2.485
    22   1 H        0.925     0.023     2.693     2.566
    23   1 H        0.926     0.023     2.694     2.567
    24   1 H        0.925     0.023     2.687     2.563
    25   1 H        0.926     0.024     2.669     2.555
    26   1 H        0.923     0.049     2.335     2.390
    27   1 H        0.924     0.037     2.493     2.469
    28   1 H        0.925     0.036     2.507     2.476
    29   1 H        0.925     0.040     2.445     2.445
    30   1 H        0.925     0.035     2.513     2.479
    31   1 H        0.926     0.035     2.521     2.483
    32   1 H        0.926     0.027     2.629     2.535
    33   1 H        0.926     0.027     2.634     2.538
    34   1 H        0.926     0.027     2.633     2.538
    35   1 H        0.925     0.022     2.699     2.569

 Mol. C6AA /au·bohr⁶  :      12655.223421
 Mol. C8AA /au·bohr⁸  :     299433.296166
 Mol. α(0) /au        :        177.355373


Wiberg/Mayer (AO) data.
largest (>0.10) Wiberg bond orders for each atom

 ---------------------------------------------------------------------------
     #   Z sym  total        # sym  WBO       # sym  WBO       # sym  WBO
 ---------------------------------------------------------------------------
     1   6 C    3.996 --     2 C    0.998    17 H    0.989    18 H    0.987
                            19 H    0.985
     2   6 C    3.997 --     3 C    1.024     1 C    0.998    21 H    0.975
                            20 H    0.958
     3   6 C    3.916 --     4 C    1.571     8 C    1.030     2 C    1.024
     4   6 C    3.991 --     3 C    1.571     5 C    1.336    22 H    0.965
     5   6 C    3.876 --     4 C    1.336     6 C    1.309    23 H    0.974
     6   6 C    3.993 --     7 C    1.629     5 C    1.309    24 H    0.968
     7   6 C    3.926 --     6 C    1.629     8 C    1.045    25 H    0.969
     8   6 C    3.994 --     7 C    1.045     3 C    1.030    26 H    0.925
                             9 C    0.886
     9   6 C    3.989 --    10 C    1.010    11 C    1.010    27 H    0.958
                             8 C    0.886
    10   6 C    3.996 --     9 C    1.010    28 H    0.985    30 H    0.985
                            29 H    0.982
    11   6 C    3.988 --    12 C    1.406    16 C    1.403     9 C    1.010
                            14 C    0.108
    12   6 C    3.989 --    13 C    1.445    11 C    1.406    31 H    0.967
                            15 C    0.109
    13   6 C    3.992 --    12 C    1.445    14 C    1.439    32 H    0.971
                            16 C    0.110
    14   6 C    3.988 --    13 C    1.439    15 C    1.434    33 H    0.972
                            11 C    0.108
    15   6 C    3.992 --    16 C    1.451    14 C    1.434    34 H    0.971
                            12 C    0.109
    16   6 C    3.990 --    15 C    1.451    11 C    1.403    35 H    0.969
                            13 C    0.110
    17   1 H    0.999 --     1 C    0.989
    18   1 H    0.998 --     1 C    0.987
    19   1 H    0.999 --     1 C    0.985
    20   1 H    0.998 --     2 C    0.958
    21   1 H    0.998 --     2 C    0.975
    22   1 H    0.999 --     4 C    0.965
    23   1 H    0.999 --     5 C    0.974
    24   1 H    0.999 --     6 C    0.968
    25   1 H    0.999 --     7 C    0.969
    26   1 H    0.996 --     8 C    0.925
    27   1 H    0.998 --     9 C    0.958
    28   1 H    0.999 --    10 C    0.985
    29   1 H    0.998 --    10 C    0.982
    30   1 H    0.998 --    10 C    0.985
    31   1 H    0.999 --    12 C    0.967
    32   1 H    0.999 --    13 C    0.971
    33   1 H    0.999 --    14 C    0.972
    34   1 H    0.999 --    15 C    0.971
    35   1 H    0.999 --    16 C    0.969
 ---------------------------------------------------------------------------

Topologies differ in total number of bonds
Writing topology from bond orders to xtbtopo.mol

molecular dipole:
                 x           y           z       tot (Debye)
 q only:       -0.097      -0.201       0.233
   full:       -0.084      -0.259       0.229       0.904
molecular quadrupole (traceless):
                xx          xy          yy          xz          yz          zz
 q only:       -0.310       2.180       0.826      -1.592       0.435      -0.516
  q+dip:        1.892       0.949       3.083      -4.845      -1.931      -4.975
   full:        0.508       1.838       1.479      -2.733      -0.468      -1.987

           -------------------------------------------------
          |                Geometry Summary                 |
           -------------------------------------------------

      molecular mass/u    :      211.3226486
   center of mass at/Å    :        0.2017538       0.0685990      -0.1725101
  moments of inertia/u·Å² :        0.5421441E+03   0.1420157E+04   0.1690902E+04
rotational constants/cm⁻¹ :        0.3109438E-01   0.1187026E-01   0.9969610E-02

 * 31 selected distances

     #   Z          #   Z                                           value/Å
     1   6 C        2   6 C                                       1.5316807 (max)
     3   6 C        4   6 C                                       1.3638764
     4   6 C        5   6 C                                       1.3988458
     5   6 C        6   6 C                                       1.4028359
     6   6 C        7   6 C                                       1.3550080
     9   6 C       10   6 C                                       1.5245795
    11   6 C       12   6 C                                       1.3902747
    12   6 C       13   6 C                                       1.3838302
    13   6 C       14   6 C                                       1.3839336
    14   6 C       15   6 C                                       1.3845265
    11   6 C       16   6 C                                       1.3919838
    15   6 C       16   6 C                                       1.3823128
     1   6 C       17   1 H                                       1.0875305
     1   6 C       18   1 H                                       1.0877144
     1   6 C       19   1 H                                       1.0871714
     2   6 C       20   1 H                                       1.0942172
     2   6 C       21   1 H                                       1.0921948
     4   6 C       22   1 H                                       1.0824469
     5   6 C       23   1 H                                       1.0781343 (min)
     6   6 C       24   1 H                                       1.0813880
     7   6 C       25   1 H                                       1.0799238
     8   6 C       26   1 H                                       1.1006828
     9   6 C       27   1 H                                       1.0948601
    10   6 C       28   1 H                                       1.0883096
    10   6 C       29   1 H                                       1.0868500
    10   6 C       30   1 H                                       1.0878078
    12   6 C       31   1 H                                       1.0788438
    13   6 C       32   1 H                                       1.0806313
    14   6 C       33   1 H                                       1.0800572
    15   6 C       34   1 H                                       1.0805190
    16   6 C       35   1 H                                       1.0819501

 * 2 distinct bonds (by element types)

   Z      Z             #   av. dist./Å        max./Å        min./Å
   1 H    6 C          19     1.0858544     1.1006828     1.0781343
   6 C    6 C          12     1.4078073     1.5316807     1.3550080


optimized geometry written to: xtbopt.xyz


           -------------------------------------------------
          | TOTAL ENERGY              -43.881197758611 Eh   |
          | GRADIENT NORM               0.000258979289 Eh/α |
          | HOMO-LUMO GAP               2.225476536160 eV   |
           -------------------------------------------------

------------------------------------------------------------------------
 * finished run on 2025/09/15 at 14:52:49.444     
------------------------------------------------------------------------
 total:
 * wall-time:     0 d,  0 h,  0 min,  0.286 sec
 *  cpu-time:     0 d,  0 h,  0 min,  1.123 sec
 * ratio c/w:     3.929 speedup
 SCF:
 * wall-time:     0 d,  0 h,  0 min,  0.027 sec
 *  cpu-time:     0 d,  0 h,  0 min,  0.103 sec
 * ratio c/w:     3.851 speedup
 ANC optimizer:
 * wall-time:     0 d,  0 h,  0 min,  0.234 sec
 *  cpu-time:     0 d,  0 h,  0 min,  0.935 sec
 * ratio c/w:     4.000 speedup

