35
 energy: -43.870563519952 gnorm: 0.073077088894 xtb: 6.7.1 (edcfbbe)
C           -2.71870000000000       -2.20080000000000        0.16450000000000
C           -2.71700000000000       -0.83870000000000        0.84450000000000
C           -2.14970000000000        0.26490000000000       -0.02320000000000
C           -2.92760000000000        1.30470000000000       -0.38730000000000
C           -2.39800000000000        2.33890000000000       -1.23950000000000
C           -1.11440000000000        2.22730000000000       -1.87800000000000
C           -0.31050000000000        1.21110000000000       -1.53360000000000
C           -0.67870000000000        0.15400000000000       -0.48990000000000
C            0.33050000000000        0.13930000000000        0.70890000000000
C            0.32730000000000        1.44920000000000        1.51550000000000
C            1.72520000000000       -0.31520000000000        0.27620000000000
C            2.77110000000000        0.58180000000000        0.01320000000000
C            4.02510000000000        0.11810000000000       -0.39280000000000
C            4.25200000000000       -1.24740000000000       -0.54460000000000
C            3.22450000000000       -2.15190000000000       -0.29250000000000
C            1.97110000000000       -1.68990000000000        0.11310000000000
H           -3.23630000000000       -2.16260000000000       -0.79980000000000
H           -3.23210000000000       -2.93390000000000        0.79520000000000
H           -1.70140000000000       -2.56740000000000       -0.00390000000000
H           -2.16240000000000       -0.89700000000000        1.78700000000000
H           -3.75110000000000       -0.60200000000000        1.12650000000000
H           -3.96230000000000        1.39340000000000       -0.07180000000000
H           -3.02380000000000        3.19360000000000       -1.47250000000000
H           -0.82860000000000        2.95770000000000       -2.62630000000000
H            0.65340000000000        1.10850000000000       -2.02500000000000
H           -0.59740000000000       -0.80380000000000       -1.02260000000000
H           -0.00180000000000       -0.62820000000000        1.42180000000000
H            1.04140000000000        1.39570000000000        2.34530000000000
H            0.59200000000000        2.31810000000000        0.90490000000000
H           -0.65970000000000        1.63940000000000        1.94970000000000
H            2.62610000000000        1.65440000000000        0.11120000000000
H            4.82510000000000        0.82650000000000       -0.59230000000000
H            5.22800000000000       -1.60550000000000       -0.86050000000000
H            3.39740000000000       -3.21820000000000       -0.41170000000000
H            1.18160000000000       -2.41420000000000        0.30320000000000
35
 energy: -43.878569719484 gnorm: 0.031777350639 xtb: 6.7.1 (edcfbbe)
C           -2.70709318289883       -2.19872508425635        0.16327083215437
C           -2.69612874777536       -0.82900473054237        0.83860903465421
C           -2.12131547383887        0.27033721015191       -0.01947917789201
C           -2.89251021726617        1.32090213203412       -0.39545838894600
C           -2.40652456902753        2.33585592750652       -1.25018229582653
C           -1.12840914890571        2.21869960623200       -1.84170176859244
C           -0.31268123397563        1.19954969292224       -1.49829070900091
C           -0.67655383715972        0.15013976281228       -0.48080833883531
C            0.33053100487965        0.12548224135375        0.71525280066720
C            0.32732183471961        1.44406524368937        1.49287261385421
C            1.71334406984778       -0.31151114446438        0.25826758660247
C            2.75427638266545        0.57734038448247        0.00183240867651
C            4.00378368791689        0.11757648804356       -0.39203309606071
C            4.23561645741085       -1.23937760201043       -0.54216299823534
C            3.21065842210508       -2.13657027509707       -0.29287734743538
C            1.96513544301286       -1.67531070649084        0.10361933755261
H           -3.22374032385117       -2.15009501322634       -0.79496956433953
H           -3.22535565011328       -2.92477416491843        0.79081515627315
H           -1.69685315284991       -2.56722289779088       -0.00913557054012
H           -2.14011225337805       -0.90064084216806        1.77920856165623
H           -3.72705230404275       -0.56921998750684        1.10374980610504
H           -3.92069117734646        1.40461780198839       -0.06796793812711
H           -3.03382295752737        3.18290947591295       -1.48647691130795
H           -0.83597821415803        2.94920964008623       -2.58358607643197
H            0.65234745245631        1.08779847816532       -1.97760259955265
H           -0.57483432579339       -0.82042256081824       -0.98852565686490
H           -0.01798791280913       -0.65116789646882        1.40777510965863
H            1.04140656492359        1.38804037448819        2.31644513597118
H            0.58241132169256        2.30082362420137        0.87069866236192
H           -0.66124127621350        1.62445153187813        1.91565250692661
H            2.60773369028367        1.64239356329658        0.11270602001667
H            4.80114864639440        0.82377862997612       -0.58463821397883
H            5.20957287417994       -1.59627762038757       -0.85182951659508
H            3.38333260927091       -3.19925174385225       -0.40500534862614
H            1.18056549717129       -2.39449953922255        0.30485594405791
35
 energy: -43.880411124756 gnorm: 0.008293968646 xtb: 6.7.1 (edcfbbe)
C           -2.69757629412355       -2.19168194931139        0.15990335794072
C           -2.68157217656095       -0.82075604771699        0.84068354783512
C           -2.10144765456726        0.26454208941866       -0.02098161274968
C           -2.86663044161296        1.32685233794517       -0.39769058162389
C           -2.40259354181633        2.32988467429398       -1.25266218455141
C           -1.12644934209188        2.21055913116793       -1.81708002659133
C           -0.30677652822194        1.18535479863692       -1.48049765908073
C           -0.67881652017873        0.14042673197944       -0.48556477242993
C            0.32806944303901        0.11605349230754        0.71666864055678
C            0.31928816241571        1.43830980204782        1.47662512322513
C            1.70262226251899       -0.31176007804819        0.26006387024192
C            2.73596887955424        0.57800222019990       -0.00079884359712
C            3.98148760764777        0.12247483340012       -0.39749643643293
C            4.21915218249269       -1.23147592981676       -0.54666619675960
C            3.19625319613754       -2.12906288092749       -0.29817401849944
C            1.95587328336752       -1.67055225560726        0.10098455064110
H           -3.21446404087647       -2.13512732773480       -0.79528943262471
H           -3.21663216255789       -2.91165613890053        0.78895652091097
H           -1.68998206593844       -2.55971282196234       -0.01405542449233
H           -2.12135647424394       -0.90213534407231        1.77777730214435
H           -3.70827150364605       -0.54735727202126        1.09848648171931
H           -3.88687691295331        1.40517234012766       -0.04349019154851
H           -3.03622407239330        3.16557043186100       -1.50219505232511
H           -0.81266325498975        2.94985887732545       -2.54150732957551
H            0.66935235736850        1.08353467264257       -1.93382042395227
H           -0.55704636576775       -0.84274920666343       -0.97061620335292
H           -0.02576041035385       -0.66283507625078        1.40076237121381
H            1.03614806568893        1.39870031286556        2.29532402553936
H            0.56584673134006        2.27592893625262        0.82994302188167
H           -0.67126063766983        1.61751017314057        1.88903465446754
H            2.58135138062240        1.63957049918352        0.10870050017091
H            4.77603338593109        0.83027282327388       -0.58413239766314
H            5.19411838586158       -1.58577298400404       -0.84784290696440
H            3.37008769256293       -3.18997419543138       -0.40460204410716
H            1.17104738401516       -2.38606966960118        0.30414977043338
35
 energy: -43.880737842817 gnorm: 0.004446670337 xtb: 6.7.1 (edcfbbe)
C           -2.69490264188711       -2.18891835042920        0.15997439968829
C           -2.67633712863960       -0.81885326930894        0.84429788768132
C           -2.09568053161698        0.26110613411736       -0.02004241448754
C           -2.85813282022350        1.32871618596968       -0.39272913758359
C           -2.39531147243747        2.32581842432134       -1.25535946124914
C           -1.11153708787788        2.21073336003557       -1.80623379199969
C           -0.29605765016779        1.18028393861979       -1.47261288277604
C           -0.67855726986835        0.13109868562275       -0.48819663182000
C            0.32541004458332        0.10833319713550        0.72252751216748
C            0.30811225768000        1.43890005047658        1.46689731909898
C            1.69586806836381       -0.31512425282602        0.26249379036232
C            2.72444716676581        0.57942897642420       -0.00361724058887
C            3.97059968186226        0.12694591046059       -0.40145265487746
C            4.21190468937277       -1.22704403118898       -0.54988940296757
C            3.19154891399780       -2.12871531618388       -0.30077696421638
C            1.95079466565425       -1.67380463438982        0.10078294956592
H           -3.21133908540090       -2.12669718245701       -0.79503942707252
H           -3.21361022011168       -2.91001039405912        0.78743883166291
H           -1.68694195177840       -2.55529771496820       -0.01565274249779
H           -2.11384161523680       -0.90391836146686        1.77944116164037
H           -3.70062911665797       -0.54307233218195        1.10403439390093
H           -3.87450194578329        1.40411831945791       -0.02545234522279
H           -3.03079220114491        3.15747254214736       -1.51344463060048
H           -0.78271731942558        2.95377280795337       -2.52099166537003
H            0.68636081072223        1.08482826981530       -1.91263326904263
H           -0.55032315878461       -0.85447959366134       -0.96777997562067
H           -0.02993727647828       -0.66964240287973        1.40620343761180
H            1.02730409297691        1.41656171781529        2.28381238183638
H            0.54752879532637        2.26747506468055        0.80509938470805
H           -0.68299976829495        1.61787556864840        1.87741231775656
H            2.56468867606860        1.64042902805055        0.10667901433488
H            4.76130304795406        0.83791340512960       -0.59241563732050
H            5.18654958881158       -1.57813773609161       -0.85428802324160
H            3.36619510003625       -3.18896042533418       -0.41112659090881
H            1.16583466163994       -2.38923558945456        0.30554010744778
35
 energy: -43.880877227133 gnorm: 0.002415190328 xtb: 6.7.1 (edcfbbe)
C           -2.69501499742582       -2.18792627626725        0.16099993214966
C           -2.67419293523768       -0.81865830156096        0.84740480738872
C           -2.09342434983850        0.25678667419376       -0.02140438957721
C           -2.85124240722440        1.32960097975318       -0.39049832608243
C           -2.38206938532975        2.32387717904512       -1.25429486953906
C           -1.09357295656444        2.20936735760655       -1.79741776637306
C           -0.28475039735757        1.17345692919239       -1.46607569328445
C           -0.67764534391649        0.12023862482477       -0.48932373359092
C            0.32384118384555        0.10292452233156        0.72953543462582
C            0.29507536560090        1.44110064214926        1.45954026043275
C            1.69256783536265       -0.31890216616933        0.27141100309331
C            2.71582699620994        0.58055117112294       -0.00250677638294
C            3.96063300428434        0.13187668370235       -0.40955021889221
C            4.20460679755117       -1.22189139914305       -0.55949044109623
C            3.18858118368254       -2.12820188278657       -0.30592769664818
C            1.94869305947144       -1.67773192461141        0.10468062070336
H           -3.21068602222174       -2.12166256803279       -0.79430293198407
H           -3.21367230114725       -2.91092612499030        0.78627559477073
H           -1.68659180595951       -2.55352811551994       -0.01572028261610
H           -2.10970922742811       -0.90541018560856        1.78109347445177
H           -3.69677080538270       -0.54223764807131        1.11122430538949
H           -3.86411581366386        1.40624410358395       -0.01512384983253
H           -3.01694222738562        3.15344605757853       -1.52091504461811
H           -0.75103746641840        2.95627304877091       -2.50170071393682
H            0.70327170634586        1.08300757310853       -1.89393747639044
H           -0.54699390509093       -0.86454114865218       -0.96763989819568
H           -0.03317977259755       -0.67161758596781        1.41552402261718
H            1.01641413977605        1.44013234605306        2.27520494955047
H            0.52351624444455        2.26199572141154        0.78373907492031
H           -0.69723415390020        1.61634707465139        1.86910368456123
H            2.55026418292178        1.64110614588644        0.10651949767315
H            4.74713843228035        0.84626914955708       -0.60668168973598
H            5.17926433158853       -1.56957125184375       -0.86793073825607
H            3.36521008384594       -3.18796840959088       -0.42014634251082
H            1.16424172687876       -2.39392699570679        0.31123221721516
35
 energy: -43.880919895824 gnorm: 0.001860473198 xtb: 6.7.1 (edcfbbe)
C           -2.69732965077450       -2.18888512596323        0.16146688626878
C           -2.67507063479729       -0.81966512022177        0.84754449268815
C           -2.09264526733608        0.25494333015793       -0.02174874632446
C           -2.84702971104745        1.33002607510026       -0.39067502820657
C           -2.37240991518834        2.32390921679775       -1.25265198041836
C           -1.08326376085405        2.20736899095019       -1.79410901414692
C           -0.27882798060711        1.16824744237343       -1.46367367074484
C           -0.67603846094966        0.11542935654114       -0.48771065759505
C            0.32327531704139        0.10150533655245        0.73449694954717
C            0.28841544477089        1.44292049070604        1.45794584238917
C            1.69186213511744       -0.31987098839833        0.27635483489628
C            2.71265319625052        0.58149201390184       -0.00140986341484
C            3.95630677198977        0.13501919834468       -0.41482755691655
C            4.20118256353126       -1.21835768400744       -0.56668714541762
C            3.18818337527412       -2.12671938692483       -0.30824266748650
C            1.94920775440800       -1.67863167733281        0.10842710970903
H           -3.21227605723909       -2.12207738438138       -0.79425670076272
H           -3.21699567357766       -2.91194193892262        0.78600409350990
H           -1.68902408414358       -2.55552215043382       -0.01459708332757
H           -2.11035503731902       -0.90629417276428        1.78110978404470
H           -3.69738544647131       -0.54258442178741        1.11280546916167
H           -3.85966973720393        1.40894112196583       -0.01683931982015
H           -3.00427635844476        3.15532034286898       -1.52043059722096
H           -0.73649154356049        2.95487654538749       -2.49479839760276
H            0.70996819071812        1.07642481471803       -1.88859401034679
H           -0.54570065440294       -0.86895375893645       -0.96516269483064
H           -0.03414067447288       -0.67102151864346        1.42249503986215
H            1.01112917182628        1.45246624183746        2.27210720973392
H            0.50921773300080        2.26159720003011        0.77730262776429
H           -0.70427007015394        1.61354937537677        1.86891516524967
H            2.54521521738586        1.64158646599891        0.10957426839304
H            4.74016088571710        0.85098934440996       -0.61735416665882
H            5.17444936034754       -1.56415680080207       -0.88218494797052
H            3.36586075531924       -3.18609593345260       -0.42574951576725
H            1.16641284584549       -2.39593484104621        0.31805399176166
35
 energy: -43.880982473491 gnorm: 0.002088948649 xtb: 6.7.1 (edcfbbe)
C           -2.70528358896548       -2.19204508030312        0.16144630712888
C           -2.67929344683891       -0.82251198622702        0.84548064126637
C           -2.09171534077312        0.25121594111435       -0.02280157513139
C           -2.83835483256372        1.33060653892586       -0.39270457165538
C           -2.35205417493753        2.32519604060132       -1.24838475339849
C           -1.06382232884401        2.20098304645124       -1.78963456707905
C           -0.26856834588863        1.15465987967999       -1.46106417139428
C           -0.67239792663718        0.10648406336046       -0.48226726677697
C            0.32247158214871        0.10062056864004        0.74417345999416
C            0.27806297120234        1.44617748158493        1.45836458036632
C            1.69226138565071       -0.31951297459652        0.28709686272739
C            2.70853374494715        0.58471534504628        0.00237215176481
C            3.94872431319110        0.14267279163908       -0.42657272962008
C            4.19453383110344       -1.20963834863915       -0.58473030532523
C            3.18806846794806       -2.12129349610672       -0.31353167070002
C            1.95213016764472       -1.67766047922877        0.11750701768112
H           -3.21870859214500       -2.12552058551933       -0.79518132943485
H           -3.22856762992685       -2.91296476283661        0.78580247859409
H           -1.69805370260176       -2.56307494133343       -0.01232329432607
H           -2.11515306979243       -0.90882889822790        1.77956431669637
H           -3.70138735302093       -0.54226935917991        1.11121401661193
H           -3.85221065521782        1.41682566731535       -0.02538674195905
H           -2.97521979606019        3.16407619147905       -1.51314874815607
H           -0.71214424846588        2.94797016312830       -2.48676158607592
H            0.71918834810212        1.05470388597839       -1.88538104238448
H           -0.54304436334948       -0.87896293005700       -0.95544026688961
H           -0.03447268037571       -0.66883912742187        1.43593451459229
H            1.00495880792507        1.47275020447371        2.26773705124528
H            0.48243306261819        2.26253266099136        0.77066554152206
H           -0.71435713725034        1.60595443331709        1.87515044098253
H            2.53850354448930        1.64378459969130        0.11825782964705
H            4.72805307290589        0.86104468048593       -0.63808263782899
H            5.16452478437152       -1.55217732107808       -0.91509317362428
H            3.36856353165504       -3.17997425912230       -0.43445246254029
H            1.17409759775122       -2.39779963402549        0.33507568347933
35
 energy: -43.881013176110 gnorm: 0.001495510329 xtb: 6.7.1 (edcfbbe)
C           -2.71052156722133       -2.19344683559991        0.16047515898877
C           -2.68242104601735       -0.82357136449611        0.84354717377960
C           -2.09053488934807        0.24927291857692       -0.02287086548715
C           -2.83283692749577        1.33143210211720       -0.39305452365730
C           -2.34183668218136        2.32583380677527       -1.24617897230590
C           -1.05477190855726        2.19579785795803       -1.78838246041966
C           -0.26398217233824        1.14557472504698       -1.46077075040499
C           -0.67059600246061        0.10173801149695       -0.47879319361344
C            0.32186963842609        0.10028760189287        0.74908946433467
C            0.27476907693728        1.44700712077371        1.46085418691306
C            1.69226563480480       -0.31789464487879        0.29158761555546
C            2.70614867817300        0.58776317336642        0.00352056351913
C            3.94451442600599        0.14781710134750       -0.43235685833108
C            4.19100896390915       -1.20398506697027       -0.59376672424257
C            3.18783355852284       -2.11713704967009       -0.31581796847769
C            1.95370491823008       -1.67550869014042        0.12192472758281
H           -3.22250861892735       -2.12694014852735       -0.79689391807788
H           -3.23650939772084       -2.91222549948536        0.78505773251922
H           -1.70411322708273       -2.56737862502617       -0.01144522210076
H           -2.11985633567544       -0.91097473144289        1.77852893303221
H           -3.70433271456924       -0.54057235018977        1.10700943623070
H           -3.84795231141472        1.42106326285185       -0.02928576218587
H           -2.96064999258592        3.16888504411680       -1.50829122391995
H           -0.70087239713850        2.94166626923716       -2.48585473882063
H            0.72270100421362        1.03998126451076       -1.88668881117028
H           -0.54073711701834       -0.88614359155122       -0.94716954652601
H           -0.03395292226650       -0.66891130891144        1.44178523999334
H            1.00506915109873        1.47852103727289        2.26672438465885
H            0.47215470326525        2.26259261140466        0.77027349887757
H           -0.71637437503781        1.60322803359859        1.88192773972471
H            2.53528427239954        1.64639630384438        0.12174260446634
H            4.72169344093802        0.86724674678485       -0.64765153742775
H            5.15871416937497       -1.54494514852611       -0.93221495986593
H            3.36945840955238       -3.17544109381843       -0.43770802567176
H            1.17847055920517       -2.39712884373850        0.34404760252955
35
 energy: -43.881060178548 gnorm: 0.001393387777 xtb: 6.7.1 (edcfbbe)
C           -2.72540004527582       -2.19619184016779        0.15637862963573
C           -2.69201456462619       -0.82564126344941        0.83810775157604
C           -2.08766298567483        0.24449440031533       -0.02260362539175
C           -2.81849140852244        1.33444690084966       -0.39247683657114
C           -2.31591652835356        2.32745532117162       -1.24041465250273
C           -1.03239220284618        2.18086864465322       -1.78663329571641
C           -0.25323271816474        1.12087280398559       -1.46116289515488
C           -0.66643079536404        0.08940768868958       -0.46931144263600
C            0.32058374780631        0.09922639535801        0.76193755168976
C            0.26899912865941        1.44783733971439        1.47005958578828
C            1.69272004348506       -0.31284112579742        0.30356703041842
C            2.69980407044242        0.59701040964325        0.00571897586006
C            3.93357076966389        0.16242172334569       -0.44761499519387
C            4.18255361531472       -1.18815242305365       -0.61646217510686
C            3.18791358445040       -2.10546564117408       -0.32186003906294
C            1.95846452143995       -1.66902833583774        0.13337178026814
H           -3.23255882743706       -2.12859403189206       -0.80344578705156
H           -3.25924286797496       -2.90959214440247        0.78048157708199
H           -1.72101938117194       -2.57768855739179       -0.01006462228588
H           -2.13535271061705       -0.91720678893289        1.77632833012650
H           -3.71349436391716       -0.53528207089019        1.09382228269489
H           -3.83588495551458        1.43324766153480       -0.03480267659425
H           -2.92416767054237        3.18030933998410       -1.49649959116944
H           -0.67420031116375        2.92013405742037       -2.48970594102423
H            0.72877173655621        0.99890479263439       -1.89469700532491
H           -0.53531534245831       -0.90532663865756       -0.92401036617949
H           -0.03209583235129       -0.67012173077408        1.45630685608559
H            1.00887777377914        1.48732212279119        2.26658518335460
H            0.45135751993380        2.26242510578885        0.77420559600233
H           -0.71798947067536        1.59731953057308        1.90294401941109
H            2.52643740541788        1.65481662860622        0.12733626240642
H            4.70534364600132        0.88474625735154       -0.67178429745292
H            5.14505659918291       -1.52497083722091       -0.97269792641872
H            3.37252000411301       -3.16295065568042       -0.44480001362280
H            1.19018881640451       -2.39431303908711        0.36679677206001
35
 energy: -43.881076514093 gnorm: 0.000929736857 xtb: 6.7.1 (edcfbbe)
C           -2.73196428065910       -2.19519661921901        0.15366404338301
C           -2.69634055832360       -0.82525597404591        0.83710773061818
C           -2.08634918529155        0.24366870643716       -0.02075742747605
C           -2.81239385702610        1.33739729356180       -0.38951010163529
C           -2.30617489572513        2.32722750895170       -1.23879593990845
C           -1.02495231854134        2.17278375365023       -1.78817722332929
C           -0.25010580461294        1.11010436876584       -1.46198375827295
C           -0.66553060715507        0.08395115256345       -0.46576569133310
C            0.32059918572393        0.09756020999225        0.76708588646664
C            0.26754515811485        1.44639724728195        1.47484813502805
C            1.69268382742645       -0.31156901387306        0.30690674660587
C            2.69601094494242        0.60094567815879        0.00421859561476
C            3.92890958965057        0.16907959830637       -0.45355125029875
C            4.18063986643457       -1.18098657347762       -0.62252408048746
C            3.18988646047310       -2.10085819111634       -0.32314165108902
C            1.96137011284916       -1.66723415811068        0.13691279457849
H           -3.23623060524974       -2.12496348470379       -0.80751585204362
H           -3.26957014945903       -2.90764172680576        0.77548755013386
H           -1.72824147560746       -2.57938666438390       -0.01038727981426
H           -2.14281366221129       -0.91977807424644        1.77687472866574
H           -3.71761721734816       -0.53228141617431        1.08984690209003
H           -3.82927145398675        1.43898464999110       -0.03173992833622
H           -2.91098601481431        3.18209678566970       -1.49539860735947
H           -0.66359805819374        2.90900063202593       -2.49337776194894
H            0.73024705297643        0.98310396213636       -1.89760571889266
H           -0.53449056282644       -0.91280377522857       -0.91533025586566
H           -0.03116944496048       -0.67201967801799        1.46167235860308
H            1.01028636691305        1.48725118701798        2.26886677450865
H            0.44638690833566        2.26109682344664        0.77826873821064
H           -0.71798130932362        1.59457505989081        1.91115953581301
H            2.52046195109419        1.65850720229876        0.12523645176749
H            4.69759441432416        0.89340678245868       -0.68231817128762
H            5.14184507359634       -1.51534267301259       -0.98399100588929
H            3.37594415842874       -3.15793133140699       -0.44747856598308
H            1.19567039003141       -2.39398924878101        0.37409329916262
35
 energy: -43.881092127899 gnorm: 0.000609929658 xtb: 6.7.1 (edcfbbe)
C           -2.73859890469655       -2.19194478221220        0.15039673185464
C           -2.70083966816850       -0.82367144440900        0.83754907909962
C           -2.08592244924679        0.24394598727129       -0.01810745100263
C           -2.80779521306829        1.34091032379913       -0.38619005792754
C           -2.29895932054556        2.32673891881223       -1.23834996526704
C           -1.01925611954226        2.16567621203238       -1.79006204695308
C           -0.24811536565180        1.10105560331285       -1.46214545288206
C           -0.66590639549832        0.07913315867388       -0.46260202658901
C            0.32113155091095        0.09445080767162        0.77090514971132
C            0.26722098515895        1.44251993122719        1.48008625316195
C            1.69322712812654       -0.31137924757695        0.30912920959973
C            2.69214428780141        0.60437613195063        0.00118756727808
C            3.92511050409887        0.17586172225128       -0.45950348610669
C            4.18109203497544       -1.17366089235633       -0.62656211827044
C            3.19432415288824       -2.09661892615663       -0.32375795755511
C            1.96578899663866       -1.66643817672992        0.13959641277753
H           -3.23896250913817       -2.11698794162533       -0.81250795408484
H           -3.28086944288922       -2.90441264535316        0.76802182490302
H           -1.73547574543227       -2.57880126943933       -0.01104898379167
H           -2.15034816485137       -0.92190902631484        1.77869561442292
H           -3.72194800865930       -0.52845311561072        1.08802031666860
H           -3.82236441617763        1.44680202005845       -0.02381602848346
H           -2.90125338409742        3.18243662885523       -1.49731691033428
H           -0.65722282423960        2.89519269704487       -2.50143206766363