35
 energy: -43.881197758611 gnorm: 0.000258979289 xtb: 6.7.1 (edcfbbe)
C           -2.89392449127368       -2.14348266649908        0.13633088456455
C           -2.72428111648413       -0.80323599855652        0.85813779769417
C           -2.07752495589319        0.24017638755946       -0.00338661507722
C           -2.75960042499367        1.36494961950015       -0.36368745931854
C           -2.22429805981080        2.32681717693099       -1.22683945962688
C           -0.96459609944743        2.10717920334652       -1.80377828103925
C           -0.23297734431724        1.01254467069185       -1.48353543335269
C           -0.66868942192166        0.02186502744882       -0.46063028832270
C            0.32625264037673        0.03381463052723        0.76821677827016
C            0.24499994782994        1.36492964676585        1.50704907683997
C            1.70878897718417       -0.32223576152105        0.29727756351786
C            2.65462947879217        0.63619070865818       -0.04865287003805
C            3.90463960365829        0.26155781633524       -0.50920737182145
C            4.23208727883469       -1.07703817662461       -0.63652824515455
C            3.29846306048556       -2.04165452824585       -0.29774467185725
C            2.05094186577545       -1.66483705960867        0.16321926534191
H           -3.43481880989819       -2.00322892003510       -0.79666679501765
H           -3.45384845031299       -2.83586077924056        0.76100693130888
H           -1.92972431914025       -2.59271714062053       -0.08827529468566
H           -2.13584425884567       -0.96866990872586        1.76570859143883
H           -3.70844792036693       -0.44460156674260        1.16746977115736
H           -3.76414358099983        1.51237570946870        0.01161192483526
H           -2.79355847559137        3.20729685494867       -1.47797968093292
H           -0.58713917175298        2.81506660377128       -2.52891384178293
H            0.72619740376877        0.83348314938946       -1.94630534078102
H           -0.57020131220136       -0.98871527897094       -0.88551852727805
H           -0.00304118115047       -0.76008027370723        1.44646071140744
H            1.01311628033154        1.41689254464440        2.27627899979169
H            0.37003031665175        2.20073900705143        0.82365112335270
H           -0.72919729321155        1.46681402024129        1.98021384884707
H            2.41795731052487        1.68508476461766        0.03916105164520
H            4.62707316574115        1.02109877394128       -0.77179253566459
H            5.20824012444050       -1.36710564947805       -0.99640289435548
H            3.54369379626192       -3.08976679976906       -0.39178504613561
H            1.32904543695370       -2.42574580748938        0.42873633222752
