      -----------------------------------------------------------      
     |                   =====================                   |     
     |                           x T B                           |     
     |                   =====================                   |     
     |                         S. Grimme                         |     
     |          Mulliken Center for Theoretical Chemistry        |     
     |                    University of Bonn                     |     
      -----------------------------------------------------------      

   * xtb version 6.7.1 (edcfbbe) compiled by 'conda@c0858423619e' on 2025-09-04

   xtb is free software: you can redistribute it and/or modify it under
   the terms of the GNU Lesser General Public License as published by
   the Free Software Foundation, either version 3 of the License, or
   (at your option) any later version.
   
   xtb is distributed in the hope that it will be useful,
   but WITHOUT ANY WARRANTY; without even the implied warranty of
   MERCHANTABILITY or FITNESS FOR A PARTICULAR PURPOSE.  See the
   GNU Lesser General Public License for more details.
   
   Cite this work as:
   * C. Bannwarth, E. Caldeweyher, S. Ehlert, A. Hansen, P. Pracht,
     J. Seibert, S. Spicher, S. Grimme, WIREs Comput. Mol. Sci., 2020, 11,
     e01493. DOI: 10.1002/wcms.1493
   
   for GFN2-xTB:
   * C. Bannwarth, S. Ehlert and S. Grimme., J. Chem. Theory Comput., 2019,
     15, 1652-1671. DOI: 10.1021/acs.jctc.8b01176
   for GFN1-xTB:
   * S. Grimme, C. Bannwarth, P. Shushkov, J. Chem. Theory Comput., 2017,
     13, 1989-2009. DOI: 10.1021/acs.jctc.7b00118
   for GFN0-xTB:
   * P. Pracht, E. Caldeweyher, S. Ehlert, S. Grimme, ChemRxiv, 2019, preprint.
     DOI: 10.26434/chemrxiv.8326202.v1
   for GFN-FF:
   * S. Spicher and S. Grimme, Angew. Chem. Int. Ed., 2020, 59, 15665-15673.
     DOI: 10.1002/anie.202004239
   
   for ALPB and GBSA implicit solvation:
   * S. Ehlert, M. Stahn, S. Spicher, S. Grimme, J. Chem. Theory Comput.,
     2021, 17, 4250-4261. DOI: 10.1021/acs.jctc.1c00471
   
   for ddCOSMO and CPCM-X implicit solvation:
   * M. Stahn, S. Ehlert, S. Grimme, J. Phys. Chem. A,
     2023, XX, XXXX-XXXX. DOI: 10.1021/acs.jpca.3c04382
   
   for DFT-D4:
   * E. Caldeweyher, C. Bannwarth and S. Grimme, J. Chem. Phys., 2017,
     147, 034112. DOI: 10.1063/1.4993215
   * E. Caldeweyher, S. Ehlert, A. Hansen, H. Neugebauer, S. Spicher,
     C. Bannwarth and S. Grimme, J. Chem. Phys., 2019, 150, 154122.
     DOI: 10.1063/1.5090222
   * E. Caldeweyher, J.-M. Mewes, S. Ehlert and S. Grimme, Phys. Chem. Chem. Phys.
     2020, 22, 8499-8512. DOI: 10.1039/D0CP00502A
   
   for sTDA-xTB:
   * S. Grimme and C. Bannwarth, J. Chem. Phys., 2016, 145, 054103.
     DOI: 10.1063/1.4959605
   
   in the mass-spec context:
   * V. Asgeirsson, C. Bauer and S. Grimme, Chem. Sci., 2017, 8, 4879.
     DOI: 10.1039/c7sc00601b
   * J. Koopman and S. Grimme, ACS Omega 2019, 4, 12, 15120-15133.
     DOI: 10.1021/acsomega.9b02011
   
   for metadynamics refer to:
   * S. Grimme, J. Chem. Theory Comput., 2019, 155, 2847-2862
     DOI: 10.1021/acs.jctc.9b00143
   
   for SPH calculations refer to:
   * S. Spicher and S. Grimme, J. Chem. Theory Comput., 2021, 17, 1701-1714
     DOI: 10.1021/acs.jctc.0c01306
   
   for ONIOM refer to:
   * C. Plett, A. Katbashev, S. Ehlert, S. Grimme, M. Bursch,
     Phys. Chem. Chem. Phys., 2023, 25, 17860-17868. DOI: 10.1039/D3CP02178E
   
   for DIPRO refer to:
   * J. Kohn, N. Gildemeister, S. Grimme, D. Fazzi, A. Hansen,
     J. Chem. Phys., 2023, just accepted.
   
   for PTB refer to:
   * S. Grimme, M. Mueller, A. Hansen, J. Chem. Phys., 2023, 158, 124111.
     DOI: 10.1063/5.0137838
   
   with help from (in alphabetical order)
   P. Atkinson, C. Bannwarth, F. Bohle, G. Brandenburg, E. Caldeweyher
   M. Checinski, S. Dohm, S. Ehlert, S. Ehrlich, I. Gerasimov, C. Hölzer
   A. Katbashev, J. Kohn, J. Koopman, C. Lavigne, S. Lehtola, F. März, M. Müller,
   F. Musil, H. Neugebauer, J. Pisarek, C. Plett, P. Pracht, F. Pultar,
   J. Seibert, P. Shushkov, S. Spicher, M. Stahn, M. Steiner, T. Strunk,
   J. Stückrath, T. Rose, and J. Unsleber
   
 * started run on 2025/09/15 at 14:21:06.335     
   ID    Z sym.   atoms
    1    6 C      1-16
    2    1 H      17-35

           -------------------------------------------------
          |                Calculation Setup                |
           -------------------------------------------------

          program call               : /home/paufv/miniforge3/envs/htvs/bin/xtb gfn_opt.xyz --opt normal --parallel 4 --chrg 0 --uhf 0 --gfn2 --input xtb.inp
          coordinate file            : gfn_opt.xyz
          omp threads                :                     4

########################################################################
[WARNING] Please study the warnings concerning your input carefully
-3- set_opt: the key 'uhf' is not recognized by opt
-2- set_opt: the key 'charge' is not recognized by opt
-1- set_opt: the key 'method' is not recognized by opt
########################################################################

           -------------------------------------------------
          |                 G F N 2 - x T B                 |
           -------------------------------------------------

        Reference                      10.1021/acs.jctc.8b01176
      * Hamiltonian:
        H0-scaling (s, p, d)           1.850000    2.230000    2.230000
        zeta-weighting                 0.500000
      * Dispersion:
        s8                             2.700000
        a1                             0.520000
        a2                             5.000000
        s9                             5.000000
      * Repulsion:
        kExp                           1.500000    1.000000
        rExp                           1.000000
      * Coulomb:
        alpha                          2.000000
        third order                    shell-resolved
        anisotropic                    true
        a3                             3.000000
        a5                             4.000000
        cn-shift                       1.200000
        cn-exp                         4.000000
        max-rad                        5.000000

q/qsh data taken from xtbrestart
CAMM data taken from xtbrestart

          ...................................................
          :                      SETUP                      :
          :.................................................:
          :  # basis functions                  83          :
          :  # atomic orbitals                  83          :
          :  # shells                           51          :
          :  # electrons                        83          :
          :  max. iterations                   250          :
          :  Hamiltonian                  GFN2-xTB          :
          :  restarted?                       true          :
          :  GBSA solvation                  false          :
          :  PC potential                    false          :
          :  electronic temp.          300.0000000     K    :
          :  accuracy                    1.0000000          :
          :  -> integral cutoff          0.2500000E+02      :
          :  -> integral neglect         0.1000000E-07      :
          :  -> SCF convergence          0.1000000E-05 Eh   :
          :  -> wf. convergence          0.1000000E-03 e    :
          :  Broyden damping             0.4000000          :
          :  net charge                          0          :
          :  unpaired electrons                  0          :
          ...................................................

 iter      E             dE          RMSdq      gap      omega  full diag
   1    -44.6036029 -0.446036E+02  0.438E+00    2.23       0.0  T
   2    -44.6075791 -0.397617E-02  0.258E+00    2.15       1.0  T
   3    -44.6034891  0.408996E-02  0.411E-01    2.23       1.0  T
   4    -44.6090398 -0.555068E-02  0.151E-01    2.17       1.0  T
   5    -44.6092868 -0.247006E-03  0.737E-02    2.16       1.0  T
   6    -44.6093568 -0.699652E-04  0.259E-02    2.17       1.0  T
   7    -44.6093652 -0.843948E-05  0.689E-03    2.17       2.5  T
   8    -44.6093659 -0.635423E-06  0.406E-03    2.17       4.2  T
   9    -44.6093662 -0.378584E-06  0.136E-03    2.17      12.5  T
  10    -44.6093662 -0.636332E-08  0.620E-04    2.17      27.3  T
  11    -44.6093662 -0.939448E-08  0.160E-04    2.17     105.5  T

   *** convergence criteria satisfied after 11 iterations ***

         #    Occupation            Energy/Eh            Energy/eV
      -------------------------------------------------------------
         1        2.0000           -0.6373760             -17.3439
       ...           ...                  ...                  ...
        36        2.0000           -0.4165582             -11.3351
        37        2.0000           -0.4143796             -11.2758
        38        2.0000           -0.4051295             -11.0241
        39        2.0000           -0.3969658             -10.8020
        40        2.0000           -0.3946644             -10.7394
        41        2.0000           -0.3874619             -10.5434
        42        1.0000           -0.3008271              -8.1859 (HOMO)
        43                         -0.2211058              -6.0166 (LUMO)
        44                         -0.2198895              -5.9835
        45                         -0.2023016              -5.5049
        46                         -0.1320742              -3.5939
        47                         -0.0958326              -2.6077
       ...                                ...                  ...
        83                          0.6337110              17.2442
      -------------------------------------------------------------
                  HL-Gap            0.0797212 Eh            2.1693 eV
             Fermi-level           -0.3025555 Eh           -8.2330 eV

 SCC (total)                   0 d,  0 h,  0 min,  0.027 sec
 SCC setup                      ...        0 min,  0.000 sec (  0.380%)
 Dispersion                     ...        0 min,  0.000 sec (  0.997%)
 classical contributions        ...        0 min,  0.000 sec (  0.183%)
 integral evaluation            ...        0 min,  0.002 sec (  5.886%)
 iterations                     ...        0 min,  0.021 sec ( 75.442%)
 molecular gradient             ...        0 min,  0.004 sec ( 16.045%)
 printout                       ...        0 min,  0.000 sec (  1.034%)

         :::::::::::::::::::::::::::::::::::::::::::::::::::::
         ::                     SUMMARY                     ::
         :::::::::::::::::::::::::::::::::::::::::::::::::::::
         :: total energy             -43.870628576385 Eh    ::
         :: gradient norm              0.067394059513 Eh/a0 ::
         :: HOMO-LUMO gap              2.169325475733 eV    ::
         ::.................................................::
         :: SCC energy               -44.608859411989 Eh    ::
         :: -> isotropic ES            0.004098214188 Eh    ::
         :: -> anisotropic ES          0.009944563258 Eh    ::
         :: -> anisotropic XC          0.029722569605 Eh    ::
         :: -> dispersion             -0.035320331456 Eh    ::
         :: repulsion energy           0.738230835605 Eh    ::
         :: add. restraining           0.000000000000 Eh    ::
         :: total charge               0.000000000000 e     ::
         :::::::::::::::::::::::::::::::::::::::::::::::::::::

      ----------------------------------------------------------- 
     |                   =====================                   |
     |                        A N C O P T                        |
     |                   =====================                   |
     |               Approximate Normal Coordinate               |
     |                Rational Function Optimizer                |
      ----------------------------------------------------------- 
      ----------------------------------------------------------- 
     |                   =====================                   |
     |                        A N C O P T                        |
     |                   =====================                   |
     |               Approximate Normal Coordinate               |
     |                Rational Function Optimizer                |
      ----------------------------------------------------------- 

          ...................................................
          :                      SETUP                      :
          :.................................................:
          :   optimization level            normal          :
          :   max. optcycles                   200          :
          :   ANC micro-cycles                  20          :
          :   degrees of freedom                99          :
          :.................................................:
          :   RF solver                   davidson          :
          :   write xtbopt.log                true          :
          :   linear?                        false          :
          :   energy convergence         0.5000000E-05 Eh   :
          :   grad. convergence          0.1000000E-02 Eh/α :
          :   maxmium RF displ.          1.0000000          :
          :   Hlow (freq-cutoff)         0.1000000E-01      :
          :   Hmax (freq-cutoff)         5.0000000          :
          :   S6 in model hess.         20.0000000          :
          ...................................................

generating ANC from exact Hessian ...
Using Lindh-Hessian (1995)
 Shifting diagonal of input Hessian by    9.5027779407045061E-003
 Lowest  eigenvalues of input Hessian
    0.000000    0.000000    0.000000    0.000000    0.000000    0.000000
    0.010000    0.010199    0.010668    0.011323    0.012230    0.012898
    0.013543    0.015620    0.016025    0.016516    0.018308    0.020272
 Highest eigenvalues
    1.695034    1.821493    1.826047    1.904257    1.926605    1.937441


........................................................................
.............................. CYCLE    1 ..............................
........................................................................

 iter      E             dE          RMSdq      gap      omega  full diag
   1    -44.6093662 -0.446094E+02  0.750E-05    2.17       0.0  T
   2    -44.6093662 -0.297931E-10  0.455E-05    2.17     371.3  T
   3    -44.6093662 -0.101466E-10  0.295E-05    2.17     572.1  T
     SCC iter.                  ...        0 min,  0.003 sec
     gradient                   ...        0 min,  0.003 sec
 * total energy  :   -43.8706286 Eh     change       -0.1353868E-09 Eh
   gradient norm :     0.0673943 Eh/α   predicted     0.0000000E+00 (-100.00%)
   displ. norm   :     0.3163989 α      lambda       -0.1010576E-01
   maximum displ.:     0.1140736 α      in ANC's #19, #20, #10, ...

........................................................................
.............................. CYCLE    2 ..............................
........................................................................

 iter      E             dE          RMSdq      gap      omega  full diag
   1    -44.6475072 -0.446475E+02  0.187E-01    2.22       0.0  T
   2    -44.6475184 -0.112264E-04  0.114E-01    2.22       1.0  T
   3    -44.6474081  0.110336E-03  0.544E-02    2.22       1.0  T
   4    -44.6475336 -0.125489E-03  0.653E-03    2.22       2.6  T
   5    -44.6475346 -0.102238E-05  0.245E-03    2.22       6.9  T
   6    -44.6475346 -0.163549E-07  0.953E-04    2.22      17.7  T
   7    -44.6475346 -0.844818E-08  0.354E-04    2.22      47.8  T
     SCC iter.                  ...        0 min,  0.006 sec
     gradient                   ...        0 min,  0.003 sec
 * total energy  :   -43.8774982 Eh     change       -0.6869659E-02 Eh
   gradient norm :     0.0283571 Eh/α   predicted    -0.5561059E-02 ( -19.05%)
   displ. norm   :     0.2941117 α      lambda       -0.2865100E-02
   maximum displ.:     0.1265521 α      in ANC's #10, #9, #6, ...

........................................................................
.............................. CYCLE    3 ..............................
........................................................................

 iter      E             dE          RMSdq      gap      omega  full diag
   1    -44.6656207 -0.446656E+02  0.121E-01    2.23       0.0  T
   2    -44.6656265 -0.581297E-05  0.741E-02    2.24       1.0  T
   3    -44.6655780  0.485204E-04  0.371E-02    2.23       1.0  T
   4    -44.6656331 -0.551775E-04  0.524E-03    2.23       3.2  T
   5    -44.6656340 -0.817168E-06  0.173E-03    2.24       9.8  T
   6    -44.6656340 -0.161388E-07  0.909E-04    2.24      18.6  T
   7    -44.6656340 -0.140429E-07  0.355E-04    2.24      47.7  T
     SCC iter.                  ...        0 min,  0.006 sec
     gradient                   ...        0 min,  0.003 sec
 * total energy  :   -43.8791961 Eh     change       -0.1697859E-02 Eh
   gradient norm :     0.0068808 Eh/α   predicted    -0.1557249E-02 (  -8.28%)
   displ. norm   :     0.2096763 α      lambda       -0.5754320E-03
   maximum displ.:     0.1075084 α      in ANC's #10, #6, #9, ...

........................................................................
.............................. CYCLE    4 ..............................
........................................................................

 iter      E             dE          RMSdq      gap      omega  full diag
   1    -44.6661453 -0.446661E+02  0.690E-02    2.23       0.0  T
   2    -44.6661458 -0.415101E-06  0.425E-02    2.23       1.0  T
   3    -44.6661199  0.258842E-04  0.248E-02    2.23       1.0  T
   4    -44.6661488 -0.289494E-04  0.178E-03    2.23       9.5  T
   5    -44.6661489 -0.696535E-07  0.769E-04    2.23      22.0  T
   6    -44.6661489 -0.394817E-08  0.310E-04    2.23      54.6  T
     SCC iter.                  ...        0 min,  0.005 sec
     gradient                   ...        0 min,  0.003 sec
 * total energy  :   -43.8796134 Eh     change       -0.4173125E-03 Eh
   gradient norm :     0.0049881 Eh/α   predicted    -0.3003732E-03 ( -28.02%)
   displ. norm   :     0.2512984 α      lambda       -0.3900568E-03
   maximum displ.:     0.1333318 α      in ANC's #6, #10, #9, ...

........................................................................
.............................. CYCLE    5 ..............................
........................................................................

 iter      E             dE          RMSdq      gap      omega  full diag
   1    -44.6646609 -0.446647E+02  0.757E-02    2.23       0.0  T
   2    -44.6646613 -0.431405E-06  0.455E-02    2.23       1.0  T
   3    -44.6646400  0.213182E-04  0.224E-02    2.23       1.0  T
   4    -44.6646634 -0.234364E-04  0.143E-03    2.23      11.8  T
   5    -44.6646634 -0.221592E-07  0.818E-04    2.23      20.7  T
   6    -44.6646634 -0.785195E-08  0.334E-04    2.23      50.6  T
     SCC iter.                  ...        0 min,  0.005 sec
     gradient                   ...        0 min,  0.003 sec
 * total energy  :   -43.8798607 Eh     change       -0.2473097E-03 Eh
   gradient norm :     0.0038440 Eh/α   predicted    -0.2073466E-03 ( -16.16%)
   displ. norm   :     0.1474055 α      lambda       -0.1171850E-03
   maximum displ.:     0.0740136 α      in ANC's #6, #2, #10, ...

........................................................................
.............................. CYCLE    6 ..............................
........................................................................

 iter      E             dE          RMSdq      gap      omega  full diag
   1    -44.6644168 -0.446644E+02  0.440E-02    2.23       0.0  T
   2    -44.6644170 -0.136714E-06  0.259E-02    2.23       1.0  T
   3    -44.6644157  0.131271E-05  0.557E-03    2.23       3.0  T
   4    -44.6644171 -0.145281E-05  0.659E-04    2.23      25.6  T
   5    -44.6644171 -0.369386E-08  0.384E-04    2.23      44.0  T
   6    -44.6644171 -0.129436E-08  0.173E-04    2.23      97.7  T
     SCC iter.                  ...        0 min,  0.005 sec
     gradient                   ...        0 min,  0.003 sec
 * total energy  :   -43.8799473 Eh     change       -0.8656319E-04 Eh
   gradient norm :     0.0027861 Eh/α   predicted    -0.5992869E-04 ( -30.77%)
   displ. norm   :     0.1631028 α      lambda       -0.1021111E-03
   maximum displ.:     0.0871164 α      in ANC's #2, #1, #6, ...

........................................................................
.............................. CYCLE    7 ..............................
........................................................................

 iter      E             dE          RMSdq      gap      omega  full diag
   1    -44.6647385 -0.446647E+02  0.558E-02    2.23       0.0  T
   2    -44.6647387 -0.147054E-06  0.328E-02    2.23       1.0  T
   3    -44.6647385  0.125161E-06  0.215E-03    2.23       7.8  T
   4    -44.6647387 -0.182555E-06  0.682E-04    2.23      24.8  T
   5    -44.6647387 -0.784379E-08  0.358E-04    2.23      47.2  T
     SCC iter.                  ...        0 min,  0.004 sec
     gradient                   ...        0 min,  0.003 sec
 * total energy  :   -43.8800221 Eh     change       -0.7477471E-04 Eh
   gradient norm :     0.0020662 Eh/α   predicted    -0.5241444E-04 ( -29.90%)
   displ. norm   :     0.1514525 α      lambda       -0.7164200E-04
   maximum displ.:     0.0872075 α      in ANC's #2, #1, #4, ...

........................................................................
.............................. CYCLE    8 ..............................
........................................................................

 iter      E             dE          RMSdq      gap      omega  full diag
   1    -44.6652431 -0.446652E+02  0.566E-02    2.24       0.0  T
   2    -44.6652432 -0.118538E-06  0.332E-02    2.24       1.0  T
   3    -44.6652433 -0.133302E-07  0.109E-03    2.24      15.5  T
   4    -44.6652433 -0.296510E-07  0.572E-04    2.24      29.6  T
   5    -44.6652433 -0.601866E-08  0.312E-04    2.24      54.2  T
     SCC iter.                  ...        0 min,  0.004 sec
     gradient                   ...        0 min,  0.003 sec
 * total energy  :   -43.8800763 Eh     change       -0.5426306E-04 Eh
   gradient norm :     0.0020717 Eh/α   predicted    -0.3664290E-04 ( -32.47%)
   displ. norm   :     0.1458921 α      lambda       -0.5629764E-04
   maximum displ.:     0.0858405 α      in ANC's #2, #1, #3, ...

........................................................................
.............................. CYCLE    9 ..............................
........................................................................

 iter      E             dE          RMSdq      gap      omega  full diag
   1    -44.6656534 -0.446657E+02  0.537E-02    2.24       0.0  T
   2    -44.6656535 -0.104215E-06  0.315E-02    2.24       1.0  T
   3    -44.6656532  0.323495E-06  0.292E-03    2.24       5.8  T
   4    -44.6656536 -0.388470E-06  0.566E-04    2.24      29.9  T
   5    -44.6656536 -0.302774E-08  0.305E-04    2.24      55.5  T
     SCC iter.                  ...        0 min,  0.004 sec
     gradient                   ...        0 min,  0.003 sec
 * total energy  :   -43.8801198 Eh     change       -0.4350591E-04 Eh
   gradient norm :     0.0018189 Eh/α   predicted    -0.2874821E-04 ( -33.92%)
   displ. norm   :     0.2129483 α      lambda       -0.4454183E-04
   maximum displ.:     0.1249520 α      in ANC's #2, #1, #3, ...

........................................................................
.............................. CYCLE   10 ..............................
........................................................................

 iter      E             dE          RMSdq      gap      omega  full diag
   1    -44.6658668 -0.446659E+02  0.733E-02    2.24       0.0  T
   2    -44.6658670 -0.208135E-06  0.430E-02    2.24       1.0  T
   3    -44.6658655  0.144368E-05  0.589E-03    2.24       2.9  T
   4    -44.6658671 -0.162864E-05  0.850E-04    2.24      19.9  T
   5    -44.6658672 -0.786477E-08  0.465E-04    2.24      36.3  T
   6    -44.6658672 -0.141273E-08  0.153E-04    2.24     110.3  T
     SCC iter.                  ...        0 min,  0.005 sec
     gradient                   ...        0 min,  0.003 sec
 * total energy  :   -43.8801635 Eh     change       -0.4371596E-04 Eh
   gradient norm :     0.0015628 Eh/α   predicted    -0.2272440E-04 ( -48.02%)
   displ. norm   :     0.1121812 α      lambda       -0.1893209E-04
   maximum displ.:     0.0675449 α      in ANC's #1, #2, #3, ...

........................................................................
.............................. CYCLE   11 ..............................
........................................................................

 iter      E             dE          RMSdq      gap      omega  full diag
   1    -44.6658363 -0.446658E+02  0.333E-02    2.24       0.0  T
   2    -44.6658364 -0.532166E-07  0.196E-02    2.24       1.0  T
   3    -44.6658358  0.558628E-06  0.365E-03    2.24       4.6  T
   4    -44.6658364 -0.616436E-06  0.424E-04    2.24      39.8  T
   5    -44.6658364 -0.293951E-08  0.215E-04    2.24      78.7  T
     SCC iter.                  ...        0 min,  0.004 sec
     gradient                   ...        0 min,  0.003 sec
 * total energy  :   -43.8801856 Eh     change       -0.2209738E-04 Eh
   gradient norm :     0.0010871 Eh/α   predicted    -0.9523136E-05 ( -56.90%)
   displ. norm   :     0.1190255 α      lambda       -0.1790097E-04
   maximum displ.:     0.0718290 α      in ANC's #1, #2, #3, ...

........................................................................
.............................. CYCLE   12 ..............................
........................................................................

 iter      E             dE          RMSdq      gap      omega  full diag
   1    -44.6658325 -0.446658E+02  0.332E-02    2.24       0.0  T
   2    -44.6658325 -0.624307E-07  0.195E-02    2.24       1.0  T
   3    -44.6658324  0.979307E-07  0.163E-03    2.24      10.4  T
   4    -44.6658326 -0.124815E-06  0.456E-04    2.24      37.1  T
   5    -44.6658326 -0.384039E-08  0.241E-04    2.24      70.2  T
     SCC iter.                  ...        0 min,  0.004 sec
     gradient                   ...        0 min,  0.003 sec
 * total energy  :   -43.8802044 Eh     change       -0.1878272E-04 Eh
   gradient norm :     0.0009109 Eh/α   predicted    -0.9007562E-05 ( -52.04%)
   displ. norm   :     0.1059821 α      lambda       -0.1165005E-04
   maximum displ.:     0.0641741 α      in ANC's #1, #3, #2, ...

........................................................................
.............................. CYCLE   13 ..............................
........................................................................

 iter      E             dE          RMSdq      gap      omega  full diag
   1    -44.6656601 -0.446657E+02  0.271E-02    2.24       0.0  T
   2    -44.6656601 -0.460398E-07  0.160E-02    2.24       1.1  T
   3    -44.6656599  0.279339E-06  0.266E-03    2.24       6.3  T
   4    -44.6656602 -0.313100E-06  0.374E-04    2.24      45.1  T
   5    -44.6656602 -0.203642E-08  0.202E-04    2.24      83.7  T
     SCC iter.                  ...        0 min,  0.004 sec
     gradient                   ...        0 min,  0.003 sec
 * total energy  :   -43.8802154 Eh     change       -0.1097702E-04 Eh
   gradient norm :     0.0008168 Eh/α   predicted    -0.5857923E-05 ( -46.63%)
   displ. norm   :     0.0735032 α      lambda       -0.6719901E-05
   maximum displ.:     0.0442369 α      in ANC's #1, #3, #2, ...

........................................................................
.............................. CYCLE   14 ..............................
........................................................................

 iter      E             dE          RMSdq      gap      omega  full diag
   1    -44.6656919 -0.446657E+02  0.182E-02    2.24       0.0  T
   2    -44.6656919 -0.197931E-07  0.107E-02    2.24       1.6  T
   3    -44.6656919  0.218927E-07  0.873E-04    2.24      19.4  T
   4    -44.6656919 -0.294712E-07  0.246E-04    2.24      68.7  T
     SCC iter.                  ...        0 min,  0.004 sec
     gradient                   ...        0 min,  0.003 sec
 * total energy  :   -43.8802230 Eh     change       -0.7574315E-05 Eh
   gradient norm :     0.0005525 Eh/α   predicted    -0.3368623E-05 ( -55.53%)
   displ. norm   :     0.0896718 α      lambda       -0.7515114E-05
   maximum displ.:     0.0512716 α      in ANC's #1, #3, #5, ...

........................................................................
.............................. CYCLE   15 ..............................
........................................................................

 iter      E             dE          RMSdq      gap      omega  full diag
   1    -44.6657703 -0.446658E+02  0.225E-02    2.24       0.0  T
   2    -44.6657703 -0.356513E-07  0.132E-02    2.24       1.3  T
   3    -44.6657703  0.142071E-07  0.848E-04    2.24      19.9  T
   4    -44.6657704 -0.252819E-07  0.298E-04    2.24      56.7  T
     SCC iter.                  ...        0 min,  0.003 sec
     gradient                   ...        0 min,  0.003 sec
 * total energy  :   -43.8802310 Eh     change       -0.7987528E-05 Eh
   gradient norm :     0.0004483 Eh/α   predicted    -0.3771856E-05 ( -52.78%)
   displ. norm   :     0.0793340 α      lambda       -0.4943795E-05
   maximum displ.:     0.0436729 α      in ANC's #1, #3, #5, ...

........................................................................
.............................. CYCLE   16 ..............................
........................................................................

 iter      E             dE          RMSdq      gap      omega  full diag
   1    -44.6657448 -0.446657E+02  0.225E-02    2.24       0.0  T
   2    -44.6657449 -0.351557E-07  0.133E-02    2.24       1.3  T
   3    -44.6657447  0.121664E-06  0.185E-03    2.24       9.1  T
   4    -44.6657449 -0.139782E-06  0.337E-04    2.24      50.1  T
   5    -44.6657449 -0.166226E-08  0.173E-04    2.24      97.9  T
     SCC iter.                  ...        0 min,  0.004 sec
     gradient                   ...        0 min,  0.003 sec
 * total energy  :   -43.8802351 Eh     change       -0.4179058E-05 Eh
   gradient norm :     0.0005900 Eh/α   predicted    -0.2480393E-05 ( -40.65%)
   displ. norm   :     0.0313023 α      lambda       -0.1824616E-05
   maximum displ.:     0.0162514 α      in ANC's #1, #3, #5, ...

   *** GEOMETRY OPTIMIZATION CONVERGED AFTER 16 ITERATIONS ***

------------------------------------------------------------------------
 total energy gain   :        -0.0096066 Eh       -6.0282 kcal/mol
 total RMSD          :         0.3003584 a0        0.1589 Å
 total power (kW/mol):        -1.5763764 (step) -159.0955 (real)
------------------------------------------------------------------------

 ANCopt (total)                0 d,  0 h,  0 min,  0.159 sec
 optimizer setup                ...        0 min,  0.000 sec (  0.040%)
 model hessian                  ...        0 min,  0.011 sec (  6.948%)
 ANC generation                 ...        0 min,  0.001 sec (  0.541%)
 coordinate transformation      ...        0 min,  0.000 sec (  0.060%)
 single point calculation       ...        0 min,  0.144 sec ( 90.980%)
 optimization log               ...        0 min,  0.001 sec (  0.664%)
 hessian update                 ...        0 min,  0.000 sec (  0.085%)
 rational function              ...        0 min,  0.001 sec (  0.450%)

================
 final structure:
================
35
 xtb: 6.7.1 (edcfbbe)
C            3.11122034544547        0.75303374792541       -1.48830899616035
C            2.43012110674972       -0.60810893793840       -1.49190831694571
C            1.66309259388592       -0.88024927541365       -0.16532961825816
C            2.62387761925292       -0.87742537104379        0.97651597029373
C            2.56756491041861        0.03179611414603        1.97787044228039
C            1.54644880847669        0.99450876848818        2.02387562386121
C            0.53521316138826        0.97390599187911        1.05876652835646
C            0.53493479151622        0.08794923982202        0.02259728580321
C           -0.62464210765966        0.02141665336524       -0.94448338984640
C           -0.72113182640506        1.28284608789864       -1.80800858955731
C           -1.87574806433296       -0.25978746253727       -0.13872925399758
C           -2.77458282993310        0.72922523304225        0.23739865681356
C           -3.87949022047211        0.42149587096445        1.01345467985369
C           -4.10310069445345       -0.87839373101757        1.42922379308890
C           -3.21255762997939       -1.87306603371709        1.06145956473964
C           -2.11143057681196       -1.56347142399345        0.28603887845686
H            2.38214880314650        1.54422508663464       -1.33150318468458
H            3.61625090995524        0.92595231193271       -2.43651428489268
H            3.84592736115441        0.80775141352062       -0.68857885443984
H            1.73248383094096       -0.66945533020448       -2.32905826493790
H            3.17974380081862       -1.39157810270736       -1.62340385194516
H            1.24337949944429       -1.89563728162077       -0.27342378250209
H            3.40319967950162       -1.62539900252982        0.94838133644778
H            3.30714862809754        0.01455133456279        2.76654065427271
H            1.51834702145667        1.71890724735061        2.82179261973056
H           -0.28726332888569        1.66879524265372        1.16048756720424
H           -0.47143635015489       -0.83216374208172       -1.61462698952330
H           -1.63464484072060        1.26533658215689       -2.39941520991208
H            0.12772002620250        1.33171493499937       -2.48639577061039
H           -0.71235440083596        2.18164972143707       -1.19717029266844
H           -2.62576497289527        1.75071868966374       -0.07672024305353
H           -4.56985064791684        1.20425696647961        1.29347656388588
H           -4.96614631912221       -1.11658909332341        2.03320921174184
H           -3.37799914749234       -2.89266279664611        1.37833974138630
H           -1.42067893978012       -2.34614965414735        0.00414977571997

 Bond Distances (Angstroems)
 ---------------------------
C1-C2=1.5220         C1-H17=1.0873        C1-H18=1.0881        C1-H19=1.0874        C2-C1=1.5220         C2-C3=1.5563         
C2-H20=1.0915        C2-H21=1.0923        C3-C2=1.5563         C3-C4=1.4923         C3-C8=1.4985         C3-H22=1.1040        
C4-C3=1.4923         C4-C5=1.3537         C4-H23=1.0806        C5-C4=1.3537         C5-C6=1.4041         C5-H24=1.0813        
C6-C5=1.4041         C6-C7=1.3980         C6-H25=1.0781        C7-C6=1.3980         C7-C8=1.3633         C7-H26=1.0815        
C8-C3=1.4985         C8-C7=1.3633         C8-C9=1.5114         C9-C8=1.5114         C9-C10=1.5317        C9-C11=1.5145        
C9-H27=1.0960        C10-C9=1.5317        C10-H28=1.0884       C10-H29=1.0877       C10-H30=1.0868       C11-C9=1.5145        
C11-C12=1.3884       C11-C16=1.3912       C12-C11=1.3884       C12-C13=1.3848       C12-H31=1.0790       C13-C12=1.3848       
C13-C14=1.3830       C13-H32=1.0806       C14-C13=1.3830       C14-C15=1.3848       C14-H33=1.0800       C15-C14=1.3848       
C15-C16=1.3819       C15-H34=1.0804       C16-C11=1.3912       C16-C15=1.3819       C16-H35=1.0813       H17-C1=1.0873        
H18-C1=1.0881        H19-C1=1.0874        H20-C2=1.0915        H21-C2=1.0923        H22-C3=1.1040        H23-C4=1.0806        
H24-C5=1.0813        H25-C6=1.0781        H26-C7=1.0815        H27-C9=1.0960        H28-C10=1.0884       H29-C10=1.0877       
H30-C10=1.0868       H31-C12=1.0790       H32-C13=1.0806       H33-C14=1.0800       H34-C15=1.0804       H35-C16=1.0813       
 C  H  Rav=1.0859 sigma=0.0065  Rmin=1.0781  Rmax=1.1040    19
 C  C  Rav=1.4388 sigma=0.0684  Rmin=1.3537  Rmax=1.5563    17

 selected bond angles (degree)
 --------------------
H17-C1-C2=110.55               H18-C1-C2=110.35               H18-C1-H17=108.74              H19-C1-C2=110.43               
H19-C1-H17=108.08              H19-C1-H18=108.62              C3-C2-C1=112.02                H20-C2-C1=109.76               
H20-C2-C3=109.20               H21-C2-C1=109.55               H21-C2-C3=108.39               H21-C2-H20=107.82              
C4-C3-C2=109.55                C8-C3-C2=111.41                C8-C3-C4=112.80                H22-C3-C2=105.35               
H22-C3-C4=108.75               H22-C3-C8=108.68               C5-C4-C3=122.72                H23-C4-C3=116.30               
H23-C4-C5=120.94               C6-C5-C4=121.00                H24-C5-C4=120.02               H24-C5-C6=118.97               
C7-C6-C5=119.56                H25-C6-C5=120.26               H25-C6-C7=120.13               C8-C7-C6=122.30                
H26-C7-C6=118.40               H26-C7-C8=119.27               C7-C8-C3=121.00                C9-C8-C3=117.96                
C9-C8-C7=121.00                C10-C9-C8=111.89               C11-C9-C8=107.55               C11-C9-C10=113.63              
H27-C9-C8=108.56               H27-C9-C10=107.79              H27-C9-C11=107.23              H28-C10-C9=110.24              
H29-C10-C9=109.84              H29-C10-H28=108.47             H30-C10-C9=111.33              H30-C10-H28=109.00             
H30-C10-H29=107.88             

 selected dihedral angles (degree)
 ---------------------------------
C3-C2-C1-H17=301.83           C3-C2-C1-H18=181.50           C3-C2-C1-H19= 61.39           H20-C2-C1-H17= 63.31          
H20-C2-C1-H18=302.98          H20-C2-C1-H19=182.88          H21-C2-C1-H17=181.52          H21-C2-C1-H18= 61.19          
H21-C2-C1-H19=301.08          C4-C3-C2-C1=298.51            C4-C3-C2-H20=176.71           C4-C3-C2-H21= 59.50           
C8-C3-C2-C1= 64.02            C8-C3-C2-H20=302.22           C8-C3-C2-H21=185.01           H22-C3-C2-C1=181.69           
H22-C3-C2-H20= 59.89          H22-C3-C2-H21=302.68          C5-C4-C3-C2=116.42            C5-C4-C3-C8=351.71            
C5-C4-C3-H22=231.07           H23-C4-C3-C2=298.63           H23-C4-C3-C8=173.93           H23-C4-C3-H22= 53.29          
C6-C5-C4-C3=  3.06            C6-C5-C4-H23=180.74           H24-C5-C4-C3=182.12           H24-C5-C4-H23=359.80          
C7-C6-C5-C4=  3.18            C7-C6-C5-H24=184.11           H25-C6-C5-C4=180.58           H25-C6-C5-H24=  1.51          
C8-C7-C6-C5=356.62            C8-C7-C6-H25=179.22           H26-C7-C6-C5=174.79           H26-C7-C6-H25=357.39          
C7-C8-C3-C2=244.30            C7-C8-C3-C4=  7.98            C7-C8-C3-H22=128.66           C9-C8-C3-C2= 66.29            
C9-C8-C3-C4=189.97            C9-C8-C3-H22=310.65           C3-C8-C7-C6=357.38            C3-C8-C7-H26=179.22           
C9-C8-C7-C6=175.33            C9-C8-C7-H26=357.17           C10-C9-C8-C3=245.95           C10-C9-C8-C7= 67.94           
C11-C9-C8-C3=120.49           C11-C9-C8-C7=302.48           H27-C9-C8-C3=  4.78           H27-C9-C8-C7=186.77           
H28-C10-C9-C8=187.39          H28-C10-C9-C11=309.43         H28-C10-C9-H27= 68.11         H29-C10-C9-C8= 67.91          
H29-C10-C9-C11=189.95         H29-C10-C9-H27=308.63         H30-C10-C9-C8=308.48          H30-C10-C9-C11= 70.52         
H30-C10-C9-H27=189.20         
           -------------------------------------------------
          |                Final Singlepoint                |
           -------------------------------------------------

          ...................................................
          :                      SETUP                      :
          :.................................................:
          :  # basis functions                  83          :
          :  # atomic orbitals                  83          :
          :  # shells                           51          :
          :  # electrons                        83          :
          :  max. iterations                   250          :
          :  Hamiltonian                  GFN2-xTB          :
          :  restarted?                      false          :
          :  GBSA solvation                  false          :
          :  PC potential                    false          :
          :  electronic temp.          300.0000000     K    :
          :  accuracy                    1.0000000          :
          :  -> integral cutoff          0.2500000E+02      :
          :  -> integral neglect         0.1000000E-07      :
          :  -> SCF convergence          0.1000000E-05 Eh   :
          :  -> wf. convergence          0.1000000E-03 e    :
          :  Broyden damping             0.4000000          :
          :  net charge                          0          :
          :  unpaired electrons                  0          :
          ...................................................

 iter      E             dE          RMSdq      gap      omega  full diag
   1    -44.6657449 -0.446657E+02  0.769E-05    2.24       0.0  T
   2    -44.6657449 -0.220055E-10  0.612E-05    2.24     276.1  T
   3    -44.6657449 -0.129013E-09  0.265E-05    2.24     638.7  T

   *** convergence criteria satisfied after 3 iterations ***

         #    Occupation            Energy/Eh            Energy/eV
      -------------------------------------------------------------
         1        2.0000           -0.6414785             -17.4555
       ...           ...                  ...                  ...
        36        2.0000           -0.4158044             -11.3146
        37        2.0000           -0.4146902             -11.2843
        38        2.0000           -0.4052178             -11.0265
        39        2.0000           -0.3984256             -10.8417
        40        2.0000           -0.3931286             -10.6976
        41        2.0000           -0.3869597             -10.5297
        42        1.0000           -0.2999962              -8.1633 (HOMO)
        43                         -0.2175547              -5.9200 (LUMO)
        44                         -0.2173066              -5.9132
        45                         -0.2037498              -5.5443
        46                         -0.1222455              -3.3265
        47                         -0.0877254              -2.3871
       ...                                ...                  ...
        83                          0.6699644              18.2307
      -------------------------------------------------------------
                  HL-Gap            0.0824416 Eh            2.2433 eV
             Fermi-level           -0.3011267 Eh           -8.1941 eV

 SCC (total)                   0 d,  0 h,  0 min,  0.007 sec
 SCC setup                      ...        0 min,  0.000 sec (  0.764%)
 Dispersion                     ...        0 min,  0.000 sec (  1.281%)
 classical contributions        ...        0 min,  0.000 sec (  0.333%)
 integral evaluation            ...        0 min,  0.001 sec ( 13.859%)
 iterations                     ...        0 min,  0.003 sec ( 37.429%)
 molecular gradient             ...        0 min,  0.003 sec ( 42.845%)
 printout                       ...        0 min,  0.000 sec (  3.363%)

         :::::::::::::::::::::::::::::::::::::::::::::::::::::
         ::                     SUMMARY                     ::
         :::::::::::::::::::::::::::::::::::::::::::::::::::::
         :: total energy             -43.880235137584 Eh    ::
         :: gradient norm              0.000590005018 Eh/a0 ::
         :: HOMO-LUMO gap              2.243348996620 eV    ::
         ::.................................................::
         :: SCC energy               -44.665191768798 Eh    ::
         :: -> isotropic ES            0.004319933139 Eh    ::
         :: -> anisotropic ES          0.009278606368 Eh    ::
         :: -> anisotropic XC          0.028438541475 Eh    ::
         :: -> dispersion             -0.036365294939 Eh    ::
         :: repulsion energy           0.784956631214 Eh    ::
         :: add. restraining           0.000000000000 Eh    ::
         :: total charge              -0.000000000000 e     ::
         :::::::::::::::::::::::::::::::::::::::::::::::::::::

           -------------------------------------------------
          |                Property Printout                |
           -------------------------------------------------

    * Orbital Energies and Occupations

         #    Occupation            Energy/Eh            Energy/eV
      -------------------------------------------------------------
         1        2.0000           -0.6414785             -17.4555
       ...           ...                  ...                  ...
        30        2.0000           -0.4517996             -12.2941
        31        2.0000           -0.4451787             -12.1139
        32        2.0000           -0.4413781             -12.0105
        33        2.0000           -0.4366803             -11.8827
        34        2.0000           -0.4310860             -11.7304
        35        2.0000           -0.4228128             -11.5053
        36        2.0000           -0.4158044             -11.3146
        37        2.0000           -0.4146902             -11.2843
        38        2.0000           -0.4052178             -11.0265
        39        2.0000           -0.3984256             -10.8417
        40        2.0000           -0.3931286             -10.6976
        41        2.0000           -0.3869597             -10.5297
        42        1.0000           -0.2999962              -8.1633 (HOMO)
        43                         -0.2175547              -5.9200 (LUMO)
        44                         -0.2173066              -5.9132
        45                         -0.2037498              -5.5443
        46                         -0.1222455              -3.3265
        47                         -0.0877254              -2.3871
        48                          0.0653251               1.7776
        49                          0.0879873               2.3943
        50                          0.0947168               2.5774
        51                          0.1089374               2.9643
        52                          0.1130991               3.0776
        53                          0.1235447               3.3618
       ...                                ...                  ...
        83                          0.6699644              18.2307
      -------------------------------------------------------------
                  HL-Gap            0.0824416 Eh            2.2433 eV
             Fermi-level           -0.3011267 Eh           -8.1941 eV

     #   Z          covCN         q      C6AA      α(0)
     1   6 C        3.751    -0.100    22.479     6.761
     2   6 C        3.803    -0.048    21.426     6.590
     3   6 C        3.860    -0.013    20.770     6.481
     4   6 C        2.909    -0.042    29.050     8.838
     5   6 C        2.903    -0.032    28.794     8.798
     6   6 C        2.916    -0.045    29.105     8.847
     7   6 C        2.907    -0.036    28.899     8.815
     8   6 C        2.966     0.001    28.001     8.680
     9   6 C        3.861    -0.021    20.904     6.502
    10   6 C        3.753    -0.098    22.434     6.754
    11   6 C        2.976     0.013    27.726     8.637
    12   6 C        2.924    -0.037    28.919     8.819
    13   6 C        2.920    -0.031    28.779     8.797
    14   6 C        2.920    -0.034    28.841     8.807
    15   6 C        2.919    -0.031    28.761     8.794
    16   6 C        2.927    -0.038    28.937     8.822
    17   1 H        0.925     0.039     2.468     2.457
    18   1 H        0.925     0.032     2.558     2.501
    19   1 H        0.925     0.037     2.492     2.469
    20   1 H        0.924     0.032     2.557     2.501
    21   1 H        0.924     0.032     2.562     2.503
    22   1 H        0.923     0.041     2.438     2.442
    23   1 H        0.926     0.023     2.692     2.566
    24   1 H        0.925     0.024     2.675     2.558
    25   1 H        0.926     0.023     2.695     2.567
    26   1 H        0.925     0.026     2.638     2.540
    27   1 H        0.924     0.035     2.518     2.482
    28   1 H        0.925     0.036     2.496     2.471
    29   1 H        0.925     0.036     2.498     2.472
    30   1 H        0.925     0.038     2.479     2.462
    31   1 H        0.926     0.033     2.543     2.494
    32   1 H        0.926     0.027     2.623     2.533
    33   1 H        0.926     0.027     2.626     2.534
    34   1 H        0.926     0.027     2.622     2.532
    35   1 H        0.925     0.023     2.688     2.564

 Mol. C6AA /au·bohr⁶  :      12659.744883
 Mol. C8AA /au·bohr⁸  :     299463.870018
 Mol. α(0) /au        :        177.387407


Wiberg/Mayer (AO) data.
largest (>0.10) Wiberg bond orders for each atom

 ---------------------------------------------------------------------------
     #   Z sym  total        # sym  WBO       # sym  WBO       # sym  WBO
 ---------------------------------------------------------------------------
     1   6 C    3.997 --     2 C    1.022    18 H    0.986    19 H    0.986
                            17 H    0.985
     2   6 C    3.992 --     1 C    1.022    21 H    0.978    20 H    0.975
                             3 C    0.934
     3   6 C    3.995 --     4 C    1.036     8 C    1.024     2 C    0.934
                            22 H    0.926
     4   6 C    3.922 --     5 C    1.637     3 C    1.036    23 H    0.971
     5   6 C    3.993 --     4 C    1.637     6 C    1.303    24 H    0.968
     6   6 C    3.878 --     7 C    1.339     5 C    1.303    25 H    0.974
     7   6 C    3.993 --     8 C    1.570     6 C    1.339    26 H    0.964
     8   6 C    3.912 --     7 C    1.570     3 C    1.024     9 C    0.989
     9   6 C    3.995 --    10 C    0.992     8 C    0.989    11 C    0.981
                            27 H    0.960
    10   6 C    3.996 --     9 C    0.992    28 H    0.985    29 H    0.985
                            30 H    0.984
    11   6 C    3.986 --    12 C    1.414    16 C    1.404     9 C    0.981
                            14 C    0.109
    12   6 C    3.990 --    13 C    1.439    11 C    1.414    31 H    0.967
                            15 C    0.109
    13   6 C    3.992 --    14 C    1.443    12 C    1.439    32 H    0.971
                            16 C    0.111
    14   6 C    3.990 --    13 C    1.443    15 C    1.431    33 H    0.972
                            11 C    0.109
    15   6 C    3.992 --    16 C    1.453    14 C    1.431    34 H    0.971
                            12 C    0.109
    16   6 C    3.992 --    15 C    1.453    11 C    1.404    35 H    0.969
                            13 C    0.111
    17   1 H    0.999 --     1 C    0.985
    18   1 H    0.999 --     1 C    0.986
    19   1 H    0.999 --     1 C    0.986
    20   1 H    0.999 --     2 C    0.975
    21   1 H    0.999 --     2 C    0.978
    22   1 H    0.997 --     3 C    0.926
    23   1 H    0.999 --     4 C    0.971
    24   1 H    0.998 --     5 C    0.968
    25   1 H    0.999 --     6 C    0.974
    26   1 H    0.999 --     7 C    0.964
    27   1 H    0.998 --     9 C    0.960
    28   1 H    0.998 --    10 C    0.985
    29   1 H    0.998 --    10 C    0.985
    30   1 H    0.999 --    10 C    0.984
    31   1 H    0.999 --    12 C    0.967
    32   1 H    0.999 --    13 C    0.971
    33   1 H    0.999 --    14 C    0.972
    34   1 H    0.999 --    15 C    0.971
    35   1 H    0.999 --    16 C    0.969
 ---------------------------------------------------------------------------

Topologies differ in total number of bonds
Writing topology from bond orders to xtbtopo.mol

molecular dipole:
                 x           y           z       tot (Debye)
 q only:        0.072      -0.010      -0.396
   full:        0.068      -0.071      -0.386       1.012
molecular quadrupole (traceless):
                xx          xy          yy          xz          yz          zz
 q only:       -0.760      -1.364       1.101      -1.347      -0.081      -0.341
  q+dip:       -0.692      -4.153       2.924      -2.571       1.766      -2.232
   full:       -0.816      -2.512       1.825      -1.839       0.678      -1.009

           -------------------------------------------------
          |                Geometry Summary                 |
           -------------------------------------------------

      molecular mass/u    :      211.3226486
   center of mass at/Å    :       -0.2233756      -0.0856144       0.2108912
  moments of inertia/u·Å² :        0.5076907E+03   0.1475523E+04   0.1599896E+04
rotational constants/cm⁻¹ :        0.3320453E-01   0.1142485E-01   0.1053670E-01

 * 31 selected distances

     #   Z          #   Z                                           value/Å
     1   6 C        2   6 C                                       1.5220443
     4   6 C        5   6 C                                       1.3537230
     5   6 C        6   6 C                                       1.4041405
     6   6 C        7   6 C                                       1.3980193
     7   6 C        8   6 C                                       1.3632925
     9   6 C       10   6 C                                       1.5317280 (max)
    11   6 C       12   6 C                                       1.3883525
    12   6 C       13   6 C                                       1.3848397
    13   6 C       14   6 C                                       1.3829602
    14   6 C       15   6 C                                       1.3848071
    11   6 C       16   6 C                                       1.3912464
    15   6 C       16   6 C                                       1.3818854
     1   6 C       17   1 H                                       1.0872522
     1   6 C       18   1 H                                       1.0881407
     1   6 C       19   1 H                                       1.0873624
     2   6 C       20   1 H                                       1.0914584
     2   6 C       21   1 H                                       1.0922680
     3   6 C       22   1 H                                       1.1040183
     4   6 C       23   1 H                                       1.0805550
     5   6 C       24   1 H                                       1.0813336
     6   6 C       25   1 H                                       1.0780606 (min)
     7   6 C       26   1 H                                       1.0815202
     9   6 C       27   1 H                                       1.0959764
    10   6 C       28   1 H                                       1.0883817
    10   6 C       29   1 H                                       1.0877256
    10   6 C       30   1 H                                       1.0867606
    12   6 C       31   1 H                                       1.0790118
    13   6 C       32   1 H                                       1.0806132
    14   6 C       33   1 H                                       1.0799923
    15   6 C       34   1 H                                       1.0804451
    16   6 C       35   1 H                                       1.0812885

 * 2 distinct bonds (by element types)

   Z      Z             #   av. dist./Å        max./Å        min./Å
   1 H    6 C          19     1.0859034     1.1040183     1.0780606
   6 C    6 C          12     1.4072532     1.5317280     1.3537230


optimized geometry written to: xtbopt.xyz


           -------------------------------------------------
          | TOTAL ENERGY              -43.880235137584 Eh   |
          | GRADIENT NORM               0.000590005018 Eh/α |
          | HOMO-LUMO GAP               2.243348996620 eV   |
           -------------------------------------------------

------------------------------------------------------------------------
 * finished run on 2025/09/15 at 14:21:06.548     
------------------------------------------------------------------------
 total:
 * wall-time:     0 d,  0 h,  0 min,  0.213 sec
 *  cpu-time:     0 d,  0 h,  0 min,  0.832 sec
 * ratio c/w:     3.912 speedup
 SCF:
 * wall-time:     0 d,  0 h,  0 min,  0.027 sec
 *  cpu-time:     0 d,  0 h,  0 min,  0.105 sec
 * ratio c/w:     3.855 speedup
 ANC optimizer:
 * wall-time:     0 d,  0 h,  0 min,  0.166 sec
 *  cpu-time:     0 d,  0 h,  0 min,  0.665 sec
 * ratio c/w:     4.000 speedup

