35
 energy: -43.858125326227 gnorm: 0.071931113807 xtb: 6.7.1 (edcfbbe)
C           -1.93730000000000        2.03300000000000       -0.63720000000000
C           -2.42000000000000        0.76410000000000        0.03670000000000
C           -1.32780000000000       -0.25880000000000        0.42710000000000
C           -2.05460000000000       -1.33070000000000        1.25080000000000
C           -2.39620000000000       -2.52300000000000        0.73880000000000
C           -2.02040000000000       -2.79760000000000       -0.62470000000000
C           -0.93050000000000       -2.08510000000000       -1.24700000000000
C           -0.54540000000000       -0.88560000000000       -0.75210000000000
C            0.79800000000000       -0.30680000000000       -1.21870000000000
C            0.67410000000000        0.63990000000000       -2.41820000000000
C            1.68850000000000        0.18790000000000       -0.08120000000000
C            1.97760000000000        1.54290000000000        0.13740000000000
C            2.79390000000000        1.93810000000000        1.20130000000000
C            3.33240000000000        0.98720000000000        2.06430000000000
C            3.05490000000000       -0.36180000000000        1.86660000000000
C            2.24040000000000       -0.75760000000000        0.80420000000000
H           -1.74550000000000        1.85740000000000       -1.69710000000000
H           -2.71610000000000        2.80160000000000       -0.58530000000000
H           -1.04060000000000        2.43210000000000       -0.15630000000000
H           -2.95430000000000        1.06770000000000        0.94810000000000
H           -3.17180000000000        0.29280000000000       -0.61060000000000
H           -0.62430000000000        0.21850000000000        1.11760000000000
H           -2.32740000000000       -1.07880000000000        2.27150000000000
H           -2.93240000000000       -3.27050000000000        1.31120000000000
H           -2.40720000000000       -3.68930000000000       -1.10540000000000
H           -0.38810000000000       -2.59210000000000       -2.03870000000000
H            1.37050000000000       -1.15260000000000       -1.63530000000000
H            0.28960000000000        1.62460000000000       -2.15230000000000
H            1.65800000000000        0.80210000000000       -2.87480000000000
H            0.02060000000000        0.21800000000000       -3.18980000000000
H            1.57280000000000        2.31690000000000       -0.50780000000000
H            3.00740000000000        2.99260000000000        1.35620000000000
H            3.96550000000000        1.29780000000000        2.89090000000000
H            3.46870000000000       -1.10800000000000        2.53960000000000
H            2.02690000000000       -1.81690000000000        0.67090000000000
35
 energy: -43.867319971809 gnorm: 0.032329926520 xtb: 6.7.1 (edcfbbe)
C           -1.93486008039394        2.03339836649491       -0.64330419540308
C           -2.41050448114871        0.75789243925686        0.03530091852875
C           -1.30915237668782       -0.25716479331793        0.43202869736292
C           -2.02269691336259       -1.32178709322166        1.23777066799628
C           -2.39455071286501       -2.50310606942494        0.70477342619480
C           -1.99312826411245       -2.81878089153303       -0.61721600601240
C           -0.94298616731482       -2.08014958664351       -1.21488685989082
C           -0.52835611508166       -0.88719213431904       -0.71221531600484
C            0.80060216861342       -0.31909236193055       -1.20981764446816
C            0.67720057580714        0.64542635945665       -2.39749166449952
C            1.66350337673053        0.19340534305912       -0.06727071767848
C            1.96162677396349        1.53652114798062        0.14402666823244
C            2.78236625691435        1.92866642605195        1.19366042104391
C            3.32008463538318        0.98572465634742        2.05282439398508
C            3.03740279177289       -0.35561457143446        1.85389876926865
C            2.21972652462646       -0.74477095194235        0.80472616031545
H           -1.72594733344888        1.85970938371069       -1.69610133834741
H           -2.71386338738172        2.79566923511306       -0.58669608873807
H           -1.04406220277047        2.42760911218940       -0.15746205169798
H           -2.93445251895428        1.03655945085607        0.95740194366135
H           -3.14484832378899        0.26097149330067       -0.60707260670830
H           -0.60221918633152        0.25293614813964        1.09589558618491
H           -2.29727728665015       -1.05997357176456        2.25147625236813
H           -2.95271714826499       -3.23669224659546        1.26990843591897
H           -2.37625105977023       -3.70575482467618       -1.10080212635814
H           -0.43904479679002       -2.54541168244114       -2.05572345126787
H            1.34889779991097       -1.18468540568865       -1.61506888056581
H            0.28166471922880        1.62046722396139       -2.12819718745910
H            1.65801598039624        0.79914276965439       -2.85270425730745
H            0.02331351539214        0.21186073103230       -3.15505149307479
H            1.56812212836890        2.30130904474727       -0.51033407178517
H            3.00001807115881        2.97840550292336        1.34282125499912
H            3.95583894854195        1.29395582325754        2.87303083816092
H            3.45545278306256       -1.10117702683442        2.51793189574750
H            2.01298130524637       -1.79827744576536        0.66063962729827
35
 energy: -43.869754898802 gnorm: 0.009115961376 xtb: 6.7.1 (edcfbbe)
C           -1.93216213465242        2.02771363909245       -0.64164746637458
C           -2.39541929395592        0.74394454531004        0.03436911738278
C           -1.27527182981941       -0.25868002594268        0.44081659208756
C           -1.98831130369923       -1.30976281514944        1.23677328886937
C           -2.38430217292333       -2.48047741283726        0.68442966707357
C           -1.97566183736068       -2.82201197283647       -0.61484587209259
C           -0.96926723917790       -2.06193251677646       -1.21731552341250
C           -0.52384007097530       -0.87727244976182       -0.70244795801487
C            0.80151251742162       -0.32834187457482       -1.20493426563722
C            0.67795359900626        0.64123571266697       -2.38662906814711
C            1.65622531792118        0.19090597431265       -0.06748084663237
C            1.94924197324552        1.53021312846262        0.14160199761436
C            2.76405128825561        1.92324318503317        1.18982644104075
C            3.30335734973958        0.98492898696924        2.04879175870947
C            3.01746687631472       -0.35479094507222        1.85228383566447
C            2.20394332779590       -0.74277632023763        0.80630241441192
H           -1.71286166531071        1.85450551326618       -1.68991041544785
H           -2.71819479677306        2.77879810705473       -0.58494873769132
H           -1.04810569999659        2.42490329804757       -0.14904223639989
H           -2.91766949826853        1.00788208562702        0.95854403191606
H           -3.11157323382680        0.22690423284143       -0.60916418730190
H           -0.57367939053840        0.28878695438782        1.08549898699264
H           -2.27276406141851       -1.04256005021830        2.24373123372862
H           -2.97796654346892       -3.19155812472284        1.24406566813864
H           -2.33864329587250       -3.72122087191895       -1.08586512791221
H           -0.47423317861727       -2.49862151144293       -2.07845608103256
H            1.33429764822788       -1.20295253980631       -1.60505072924570
H            0.27813570848531        1.60608647610509       -2.10058736594369
H            1.65968902133599        0.79551155973537       -2.83079178017818
H            0.02380287546546        0.20699991492371       -3.13990402992171
H            1.55406976263170        2.28823756188032       -0.51594754018325
H            2.98718005126597        2.97100376637481        1.32972256127225
H            3.94660585136444        1.29282674354366        2.85999917767335
H            3.44064634867750       -1.09975812814887        2.50992159461196
H            1.99164772950071       -1.79191382618772        0.65899086438195
35
 energy: -43.870161057292 gnorm: 0.006456799138 xtb: 6.7.1 (edcfbbe)
C           -1.93153862443653        2.02395454763984       -0.63662644881452
C           -2.38793921745618        0.73642912134591        0.03561621512739
C           -1.25554768883141       -0.25881423910782        0.44565712555821
C           -1.97320206209875       -1.30341634973377        1.24316016048390
C           -2.38327339098279       -2.46709296906727        0.68395098331458
C           -1.97216342052860       -2.81636698262232       -0.61306757582202
C           -0.97549310430394       -2.05426139408293       -1.22539874615897
C           -0.51603140603964       -0.87622852431977       -0.70241809817613
C            0.80640358802179       -0.33482671168065       -1.20933502260612
C            0.68157458261511        0.63669790065997       -2.38887805617170
C            1.65461109840721        0.18604874539355       -0.07060551427122
C            1.94216666853533        1.52718039809708        0.13749428605704
C            2.75582917173998        1.92207232075723        1.18639393234505
C            3.29530204857644        0.98465385700455        2.04737468961782
C            3.00861091851757       -0.35652609071980        1.85509237457644
C            2.19669255883070       -0.74696090907189        0.80861741560373
H           -1.70474289979821        1.85308367863162       -1.68377605622446
H           -2.72524420113012        2.76688416881448       -0.58370015367465
H           -1.05399483809587        2.42836594322020       -0.13726761479757
H           -2.91772727932642        0.99295016325947        0.95667225404456
H           -3.09031863120497        0.20869781756409       -0.61355246169442
H           -0.55825909137745        0.30157255626052        1.08340553040131
H           -2.25698731902768       -1.03711263966476        2.24994556715010
H           -2.98795220033397       -3.16682507156815        1.24562258153229
H           -2.32573541308370       -3.72402482079903       -1.07536670284581
H           -0.49507417445991       -2.46829093253474       -2.10837121593132
H            1.33860655627812       -1.21010516471379       -1.60670850688034
H            0.27614938110625        1.59626606206828       -2.09344616562963
H            1.66347834502673        0.79927725811752       -2.82846240077216
H            0.02953929003732        0.20388946816163       -3.14418193985067
H            1.54597198490067        2.28284322176973       -0.52259591426353
H            2.97447864043927        2.97084953300673        1.32625947499136
H            3.93596862520865        1.29446143930009        2.85936827941191
H            3.42681689851214       -1.09991797709333        2.51747367739467
H            1.97892460576263       -1.79540742429222        0.66235404697526
35
 energy: -43.870359409400 gnorm: 0.003522344833 xtb: 6.7.1 (edcfbbe)
C           -1.93264897799469        2.02234180378664       -0.62948327459766
C           -2.38065875633726        0.72891324039689        0.03495233018284
C           -1.23772319081555       -0.25838500593598        0.44941539962849
C           -1.95445656922387       -1.30058089807471        1.25188764740653
C           -2.37637932859730       -2.45739155091333        0.68858933269760
C           -1.97756730519068       -2.80422662630822       -0.61367444811257
C           -0.98615092174848       -2.04493249698982       -1.23766843316445
C           -0.51080965727443       -0.87494981263937       -0.70713536156972
C            0.81180324316304       -0.34053236652739       -1.21602453778898
C            0.68694135079240        0.63151776229609       -2.39502509332293
C            1.65765907079384        0.18080500843883       -0.07674058355686
C            1.94003163714840        1.52381122915001        0.13098296797259
C            2.74678312953748        1.92136663714272        1.18499164328733
C            3.28277528429467        0.98501234374532        2.05003919000378
C            2.99672165712293       -0.35747999882311        1.86140791900017
C            2.19126452570150       -0.75121233317466        0.81049992459557
H           -1.69561833133250        1.85671992837427       -1.67556009447036
H           -2.73549906863033        2.75621795307164       -0.58181138597662
H           -1.06364064140811        2.43602057428344       -0.12163207657746
H           -2.92001795008049        0.97573085678687        0.95272267999343
H           -3.06926531825360        0.19266360581439       -0.62118077818665
H           -0.54223835002466        0.30899539185037        1.08003730126578
H           -2.23333774702972       -1.03613679957407        2.26036527198840
H           -2.98689966940918       -3.14864039466996        1.25269055002114
H           -2.32784025645819       -3.71762464594981       -1.06753569684685
H           -0.51349886288274       -2.44796599715595       -2.12617631995290
H            1.34463266918380       -1.21605584491166       -1.61187367376919
H            0.27390561139001        1.58678320065142       -2.09542554890428
H            1.66936473637735        0.80338386039757       -2.83031817089596
H            0.03997389047068        0.19831739811943       -3.15442867322102
H            1.54283196123107        2.27763347837927       -0.53100533378859
H            2.96104934390060        2.97132413184039        1.32527869168163
H            3.92080330465769        1.29696134812434        2.86341978380596
H            3.40892045173819       -1.09898804603821        2.53014350286227
H            1.96868903518779       -1.79941693496331        0.66597534831017
35
 energy: -43.870488288729 gnorm: 0.003682723342 xtb: 6.7.1 (edcfbbe)
C           -1.93498164156689        2.02221246499905       -0.62144748943635
C           -2.37554921385037        0.72209932451613        0.03318640967891
C           -1.22490864940040       -0.25752752289327        0.45049535168678
C           -1.93602835107393       -1.29958065190896        1.25961839568233
C           -2.36984168900727       -2.45052571390456        0.69456891562032
C           -1.98624259978542       -2.79180226985275       -0.61480042122525
C           -0.99337265248742       -2.03908803906884       -1.24479719212168
C           -0.50602214787211       -0.87529622468530       -0.71122345482469
C            0.81730488633036       -0.34514668183560       -1.22219315882487
C            0.69277157489102        0.62525235627958       -2.40256292555035
C            1.66164806283236        0.17706031096910       -0.08197414447752
C            1.94099790540248        1.52108754742720        0.12488198959925
C            2.73974025158963        1.92137333185671        1.18447389254149
C            3.26982442741601        0.98653521781385        2.05494522871843
C            2.98524683230598       -0.35670899118624        1.86849671774916
C            2.18785274601981       -0.75347352476253        0.81213926530912
H           -1.68640044020671        1.86377122514979       -1.66628409598850
H           -2.74647286033533        2.74738192147690       -0.57923878099997
H           -1.07515482130354        2.44447755406552       -0.10437073083788
H           -2.92464413865860        0.95923653331972        0.94777021481508
H           -3.05243861792494        0.18112616453292       -0.63048397049691
H           -0.52930400153733        0.31398781307782        1.07449986661299
H           -2.20163412346283       -1.03844003213460        2.27263465377644
H           -2.97729154735577       -3.13952099922832        1.26264407015023
H           -2.34468707102500       -3.70241760955469       -1.06710073448634
H           -0.53387784618116       -2.43416899180361       -2.14278486392872
H            1.35061955137822       -1.22137613985863       -1.61680376226261
H            0.27113113005105        1.57747080430018       -2.10455526972927
H            1.67630190044406        0.80517401476228       -2.83292239028668
H            0.05314072939230        0.18870265196666       -3.16664255060689
H            1.54624093360739        2.27311526509815       -0.54080427689276
H            2.95050955540108        2.97217498617481        1.32529490193484
H            3.90177799204812        1.30070945615621        2.87252312866507
H            3.39031271204294       -1.09613148057335        2.54437393582839
H            1.96333122188174       -1.80174407069088        0.66914327460932
