      -----------------------------------------------------------      
     |                   =====================                   |     
     |                           x T B                           |     
     |                   =====================                   |     
     |                         S. Grimme                         |     
     |          Mulliken Center for Theoretical Chemistry        |     
     |                    University of Bonn                     |     
      -----------------------------------------------------------      

   * xtb version 6.7.1 (edcfbbe) compiled by 'conda@c0858423619e' on 2025-09-04

   xtb is free software: you can redistribute it and/or modify it under
   the terms of the GNU Lesser General Public License as published by
   the Free Software Foundation, either version 3 of the License, or
   (at your option) any later version.
   
   xtb is distributed in the hope that it will be useful,
   but WITHOUT ANY WARRANTY; without even the implied warranty of
   MERCHANTABILITY or FITNESS FOR A PARTICULAR PURPOSE.  See the
   GNU Lesser General Public License for more details.
   
   Cite this work as:
   * C. Bannwarth, E. Caldeweyher, S. Ehlert, A. Hansen, P. Pracht,
     J. Seibert, S. Spicher, S. Grimme, WIREs Comput. Mol. Sci., 2020, 11,
     e01493. DOI: 10.1002/wcms.1493
   
   for GFN2-xTB:
   * C. Bannwarth, S. Ehlert and S. Grimme., J. Chem. Theory Comput., 2019,
     15, 1652-1671. DOI: 10.1021/acs.jctc.8b01176
   for GFN1-xTB:
   * S. Grimme, C. Bannwarth, P. Shushkov, J. Chem. Theory Comput., 2017,
     13, 1989-2009. DOI: 10.1021/acs.jctc.7b00118
   for GFN0-xTB:
   * P. Pracht, E. Caldeweyher, S. Ehlert, S. Grimme, ChemRxiv, 2019, preprint.
     DOI: 10.26434/chemrxiv.8326202.v1
   for GFN-FF:
   * S. Spicher and S. Grimme, Angew. Chem. Int. Ed., 2020, 59, 15665-15673.
     DOI: 10.1002/anie.202004239
   
   for ALPB and GBSA implicit solvation:
   * S. Ehlert, M. Stahn, S. Spicher, S. Grimme, J. Chem. Theory Comput.,
     2021, 17, 4250-4261. DOI: 10.1021/acs.jctc.1c00471
   
   for ddCOSMO and CPCM-X implicit solvation:
   * M. Stahn, S. Ehlert, S. Grimme, J. Phys. Chem. A,
     2023, XX, XXXX-XXXX. DOI: 10.1021/acs.jpca.3c04382
   
   for DFT-D4:
   * E. Caldeweyher, C. Bannwarth and S. Grimme, J. Chem. Phys., 2017,
     147, 034112. DOI: 10.1063/1.4993215
   * E. Caldeweyher, S. Ehlert, A. Hansen, H. Neugebauer, S. Spicher,
     C. Bannwarth and S. Grimme, J. Chem. Phys., 2019, 150, 154122.
     DOI: 10.1063/1.5090222
   * E. Caldeweyher, J.-M. Mewes, S. Ehlert and S. Grimme, Phys. Chem. Chem. Phys.
     2020, 22, 8499-8512. DOI: 10.1039/D0CP00502A
   
   for sTDA-xTB:
   * S. Grimme and C. Bannwarth, J. Chem. Phys., 2016, 145, 054103.
     DOI: 10.1063/1.4959605
   
   in the mass-spec context:
   * V. Asgeirsson, C. Bauer and S. Grimme, Chem. Sci., 2017, 8, 4879.
     DOI: 10.1039/c7sc00601b
   * J. Koopman and S. Grimme, ACS Omega 2019, 4, 12, 15120-15133.
     DOI: 10.1021/acsomega.9b02011
   
   for metadynamics refer to:
   * S. Grimme, J. Chem. Theory Comput., 2019, 155, 2847-2862
     DOI: 10.1021/acs.jctc.9b00143
   
   for SPH calculations refer to:
   * S. Spicher and S. Grimme, J. Chem. Theory Comput., 2021, 17, 1701-1714
     DOI: 10.1021/acs.jctc.0c01306
   
   for ONIOM refer to:
   * C. Plett, A. Katbashev, S. Ehlert, S. Grimme, M. Bursch,
     Phys. Chem. Chem. Phys., 2023, 25, 17860-17868. DOI: 10.1039/D3CP02178E
   
   for DIPRO refer to:
   * J. Kohn, N. Gildemeister, S. Grimme, D. Fazzi, A. Hansen,
     J. Chem. Phys., 2023, just accepted.
   
   for PTB refer to:
   * S. Grimme, M. Mueller, A. Hansen, J. Chem. Phys., 2023, 158, 124111.
     DOI: 10.1063/5.0137838
   
   with help from (in alphabetical order)
   P. Atkinson, C. Bannwarth, F. Bohle, G. Brandenburg, E. Caldeweyher
   M. Checinski, S. Dohm, S. Ehlert, S. Ehrlich, I. Gerasimov, C. Hölzer
   A. Katbashev, J. Kohn, J. Koopman, C. Lavigne, S. Lehtola, F. März, M. Müller,
   F. Musil, H. Neugebauer, J. Pisarek, C. Plett, P. Pracht, F. Pultar,
   J. Seibert, P. Shushkov, S. Spicher, M. Stahn, M. Steiner, T. Strunk,
   J. Stückrath, T. Rose, and J. Unsleber
   
 * started run on 2025/09/15 at 14:52:50.999     
   ID    Z sym.   atoms
    1    6 C      1-16
    2    1 H      17-35

           -------------------------------------------------
          |                Calculation Setup                |
           -------------------------------------------------

          program call               : /home/paufv/miniforge3/envs/htvs/bin/xtb gfn_opt.xyz --opt normal --parallel 4 --chrg 0 --uhf 0 --gfn2 --input xtb.inp
          coordinate file            : gfn_opt.xyz
          omp threads                :                     4

########################################################################
[WARNING] Please study the warnings concerning your input carefully
-3- set_opt: the key 'uhf' is not recognized by opt
-2- set_opt: the key 'charge' is not recognized by opt
-1- set_opt: the key 'method' is not recognized by opt
########################################################################

           -------------------------------------------------
          |                 G F N 2 - x T B                 |
           -------------------------------------------------

        Reference                      10.1021/acs.jctc.8b01176
      * Hamiltonian:
        H0-scaling (s, p, d)           1.850000    2.230000    2.230000
        zeta-weighting                 0.500000
      * Dispersion:
        s8                             2.700000
        a1                             0.520000
        a2                             5.000000
        s9                             5.000000
      * Repulsion:
        kExp                           1.500000    1.000000
        rExp                           1.000000
      * Coulomb:
        alpha                          2.000000
        third order                    shell-resolved
        anisotropic                    true
        a3                             3.000000
        a5                             4.000000
        cn-shift                       1.200000
        cn-exp                         4.000000
        max-rad                        5.000000

q/qsh data taken from xtbrestart
CAMM data taken from xtbrestart

          ...................................................
          :                      SETUP                      :
          :.................................................:
          :  # basis functions                  83          :
          :  # atomic orbitals                  83          :
          :  # shells                           51          :
          :  # electrons                        83          :
          :  max. iterations                   250          :
          :  Hamiltonian                  GFN2-xTB          :
          :  restarted?                       true          :
          :  GBSA solvation                  false          :
          :  PC potential                    false          :
          :  electronic temp.          300.0000000     K    :
          :  accuracy                    1.0000000          :
          :  -> integral cutoff          0.2500000E+02      :
          :  -> integral neglect         0.1000000E-07      :
          :  -> SCF convergence          0.1000000E-05 Eh   :
          :  -> wf. convergence          0.1000000E-03 e    :
          :  Broyden damping             0.4000000          :
          :  net charge                          0          :
          :  unpaired electrons                  0          :
          ...................................................

 iter      E             dE          RMSdq      gap      omega  full diag
   1    -44.6023304 -0.446023E+02  0.442E+00    2.31       0.0  T
   2    -44.6046616 -0.233113E-02  0.263E+00    2.20       1.0  T
   3    -44.5963044  0.835715E-02  0.487E-01    2.28       1.0  T
   4    -44.6060116 -0.970721E-02  0.108E-01    2.26       1.0  T
   5    -44.6061196 -0.108008E-03  0.596E-02    2.25       1.0  T
   6    -44.6061385 -0.188202E-04  0.181E-02    2.27       1.0  T
   7    -44.6061455 -0.702656E-05  0.525E-03    2.26       3.2  T
   8    -44.6061462 -0.658384E-06  0.238E-03    2.26       7.1  T
   9    -44.6061462 -0.802829E-07  0.835E-04    2.26      20.2  T
  10    -44.6061462 -0.701094E-08  0.468E-04    2.26      36.1  T

   *** convergence criteria satisfied after 10 iterations ***

         #    Occupation            Energy/Eh            Energy/eV
      -------------------------------------------------------------
         1        2.0000           -0.6344236             -17.2635
       ...           ...                  ...                  ...
        36        2.0000           -0.4124523             -11.2234
        37        2.0000           -0.4110200             -11.1844
        38        2.0000           -0.4034850             -10.9794
        39        2.0000           -0.3945379             -10.7359
        40        2.0000           -0.3910510             -10.6410
        41        2.0000           -0.3878236             -10.5532
        42        1.0000           -0.3005154              -8.1774 (HOMO)
        43                         -0.2174647              -5.9175 (LUMO)
        44                         -0.2170256              -5.9056
        45                         -0.2008793              -5.4662
        46                         -0.1358202              -3.6959
        47                         -0.0925629              -2.5188
       ...                                ...                  ...
        83                          0.6387128              17.3803
      -------------------------------------------------------------
                  HL-Gap            0.0830506 Eh            2.2599 eV
             Fermi-level           -0.3015798 Eh           -8.2064 eV

 SCC (total)                   0 d,  0 h,  0 min,  0.023 sec
 SCC setup                      ...        0 min,  0.000 sec (  0.383%)
 Dispersion                     ...        0 min,  0.000 sec (  1.077%)
 classical contributions        ...        0 min,  0.000 sec (  0.131%)
 integral evaluation            ...        0 min,  0.001 sec (  5.486%)
 iterations                     ...        0 min,  0.018 sec ( 78.060%)
 molecular gradient             ...        0 min,  0.003 sec ( 13.805%)
 printout                       ...        0 min,  0.000 sec (  1.016%)

         :::::::::::::::::::::::::::::::::::::::::::::::::::::
         ::                     SUMMARY                     ::
         :::::::::::::::::::::::::::::::::::::::::::::::::::::
         :: total energy             -43.866731009645 Eh    ::
         :: gradient norm              0.072787752680 Eh/a0 ::
         :: HOMO-LUMO gap              2.259922847931 eV    ::
         ::.................................................::
         :: SCC energy               -44.605257003956 Eh    ::
         :: -> isotropic ES            0.004262424842 Eh    ::
         :: -> anisotropic ES          0.010373093937 Eh    ::
         :: -> anisotropic XC          0.029655236357 Eh    ::
         :: -> dispersion             -0.036322059120 Eh    ::
         :: repulsion energy           0.738525994311 Eh    ::
         :: add. restraining           0.000000000000 Eh    ::
         :: total charge               0.000000000000 e     ::
         :::::::::::::::::::::::::::::::::::::::::::::::::::::

      ----------------------------------------------------------- 
     |                   =====================                   |
     |                        A N C O P T                        |
     |                   =====================                   |
     |               Approximate Normal Coordinate               |
     |                Rational Function Optimizer                |
      ----------------------------------------------------------- 
      ----------------------------------------------------------- 
     |                   =====================                   |
     |                        A N C O P T                        |
     |                   =====================                   |
     |               Approximate Normal Coordinate               |
     |                Rational Function Optimizer                |
      ----------------------------------------------------------- 

          ...................................................
          :                      SETUP                      :
          :.................................................:
          :   optimization level            normal          :
          :   max. optcycles                   200          :
          :   ANC micro-cycles                  20          :
          :   degrees of freedom                99          :
          :.................................................:
          :   RF solver                   davidson          :
          :   write xtbopt.log                true          :
          :   linear?                        false          :
          :   energy convergence         0.5000000E-05 Eh   :
          :   grad. convergence          0.1000000E-02 Eh/α :
          :   maxmium RF displ.          1.0000000          :
          :   Hlow (freq-cutoff)         0.1000000E-01      :
          :   Hmax (freq-cutoff)         5.0000000          :
          :   S6 in model hess.         20.0000000          :
          ...................................................

generating ANC from exact Hessian ...
Using Lindh-Hessian (1995)
 Shifting diagonal of input Hessian by    9.4570828791122746E-003
 Lowest  eigenvalues of input Hessian
    0.000000    0.000000    0.000000    0.000000    0.000000    0.000000
    0.010000    0.010241    0.010654    0.011514    0.011699    0.013441
    0.013878    0.015495    0.016166    0.017216    0.017618    0.019254
 Highest eigenvalues
    1.691613    1.823986    1.825594    1.897930    1.929501    1.939886


........................................................................
.............................. CYCLE    1 ..............................
........................................................................

 iter      E             dE          RMSdq      gap      omega  full diag
   1    -44.6061462 -0.446061E+02  0.166E-04    2.26       0.0  T
   2    -44.6061462 -0.650715E-10  0.108E-04    2.26     156.5  T
   3    -44.6061462 -0.103014E-09  0.749E-05    2.26     225.8  T
     SCC iter.                  ...        0 min,  0.003 sec
     gradient                   ...        0 min,  0.003 sec
 * total energy  :   -43.8667310 Eh     change       -0.5026507E-08 Eh
   gradient norm :     0.0727857 Eh/α   predicted     0.0000000E+00 (-100.00%)
   displ. norm   :     0.3383573 α      lambda       -0.1231240E-01
   maximum displ.:     0.1317744 α      in ANC's #16, #20, #12, ...

........................................................................
.............................. CYCLE    2 ..............................
........................................................................

 iter      E             dE          RMSdq      gap      omega  full diag
   1    -44.6455720 -0.446456E+02  0.220E-01    2.31       0.0  T
   2    -44.6455882 -0.161940E-04  0.133E-01    2.32       1.0  T
   3    -44.6455041  0.840941E-04  0.487E-02    2.30       1.0  T
   4    -44.6455995 -0.953828E-04  0.752E-03    2.31       2.2  T
   5    -44.6456010 -0.157144E-05  0.299E-03    2.31       5.7  T
   6    -44.6456011 -0.703293E-07  0.136E-03    2.31      12.4  T
   7    -44.6456011 -0.243529E-07  0.503E-04    2.31      33.6  T
   8    -44.6456011 -0.480858E-08  0.173E-04    2.31      97.7  T
     SCC iter.                  ...        0 min,  0.007 sec
     gradient                   ...        0 min,  0.003 sec
 * total energy  :   -43.8752253 Eh     change       -0.8494287E-02 Eh
   gradient norm :     0.0327422 Eh/α   predicted    -0.6863266E-02 ( -19.20%)
   displ. norm   :     0.3332292 α      lambda       -0.4101846E-02
   maximum displ.:     0.1448463 α      in ANC's #16, #12, #20, ...

........................................................................
.............................. CYCLE    3 ..............................
........................................................................

 iter      E             dE          RMSdq      gap      omega  full diag
   1    -44.6654092 -0.446654E+02  0.178E-01    2.32       0.0  T
   2    -44.6654181 -0.895068E-05  0.106E-01    2.33       1.0  T
   3    -44.6653899  0.282361E-04  0.296E-02    2.32       1.0  T
   4    -44.6654227 -0.328160E-04  0.423E-03    2.32       4.0  T
   5    -44.6654231 -0.367293E-06  0.207E-03    2.32       8.2  T
   6    -44.6654231 -0.419148E-07  0.922E-04    2.32      18.3  T
   7    -44.6654231 -0.167969E-07  0.292E-04    2.32      57.9  T
     SCC iter.                  ...        0 min,  0.006 sec
     gradient                   ...        0 min,  0.003 sec
 * total energy  :   -43.8776457 Eh     change       -0.2420385E-02 Eh
   gradient norm :     0.0093458 Eh/α   predicted    -0.2280580E-02 (  -5.78%)
   displ. norm   :     0.2413775 α      lambda       -0.8274984E-03
   maximum displ.:     0.1241621 α      in ANC's #2, #6, #12, ...

........................................................................
.............................. CYCLE    4 ..............................
........................................................................

 iter      E             dE          RMSdq      gap      omega  full diag
   1    -44.6655213 -0.446655E+02  0.984E-02    2.31       0.0  T
   2    -44.6655223 -0.968914E-06  0.584E-02    2.32       1.0  T
   3    -44.6655085  0.137802E-04  0.178E-02    2.31       1.0  T
   4    -44.6655238 -0.152337E-04  0.172E-03    2.31       9.8  T
   5    -44.6655238 -0.515871E-07  0.867E-04    2.31      19.5  T
   6    -44.6655238 -0.110511E-07  0.295E-04    2.31      57.2  T
     SCC iter.                  ...        0 min,  0.005 sec
     gradient                   ...        0 min,  0.003 sec
 * total energy  :   -43.8782443 Eh     change       -0.5985799E-03 Eh
   gradient norm :     0.0065776 Eh/α   predicted    -0.4378940E-03 ( -26.84%)
   displ. norm   :     0.2966346 α      lambda       -0.5784045E-03
   maximum displ.:     0.1779391 α      in ANC's #2, #6, #5, ...

........................................................................
.............................. CYCLE    5 ..............................
........................................................................

 iter      E             dE          RMSdq      gap      omega  full diag
   1    -44.6643068 -0.446643E+02  0.999E-02    2.31       0.0  T
   2    -44.6643077 -0.904271E-06  0.588E-02    2.31       1.0  T
   3    -44.6643022  0.549510E-05  0.116E-02    2.31       1.5  T
   4    -44.6643084 -0.616676E-05  0.165E-03    2.31      10.2  T
   5    -44.6643084 -0.457729E-07  0.869E-04    2.31      19.5  T
   6    -44.6643084 -0.123070E-07  0.328E-04    2.31      51.6  T
     SCC iter.                  ...        0 min,  0.005 sec
     gradient                   ...        0 min,  0.003 sec
 * total energy  :   -43.8786470 Eh     change       -0.4027562E-03 Eh
   gradient norm :     0.0054651 Eh/α   predicted    -0.3146543E-03 ( -21.87%)
   displ. norm   :     0.2568587 α      lambda       -0.3110029E-03
   maximum displ.:     0.1654232 α      in ANC's #2, #5, #6, ...

........................................................................
.............................. CYCLE    6 ..............................
........................................................................

 iter      E             dE          RMSdq      gap      omega  full diag
   1    -44.6639248 -0.446639E+02  0.746E-02    2.31       0.0  T
   2    -44.6639252 -0.428347E-06  0.438E-02    2.31       1.0  T
   3    -44.6639238  0.142260E-05  0.599E-03    2.31       2.8  T
   4    -44.6639255 -0.164114E-05  0.107E-03    2.31      15.8  T
   5    -44.6639255 -0.206710E-07  0.580E-04    2.31      29.1  T
   6    -44.6639255 -0.434405E-08  0.215E-04    2.31      78.5  T
     SCC iter.                  ...        0 min,  0.005 sec
     gradient                   ...        0 min,  0.003 sec
 * total energy  :   -43.8788958 Eh     change       -0.2488040E-03 Eh
   gradient norm :     0.0053579 Eh/α   predicted    -0.1657612E-03 ( -33.38%)
   displ. norm   :     0.3159430 α      lambda       -0.3445630E-03
   maximum displ.:     0.2002896 α      in ANC's #2, #4, #1, ...

........................................................................
.............................. CYCLE    7 ..............................
........................................................................

 iter      E             dE          RMSdq      gap      omega  full diag
   1    -44.6640786 -0.446641E+02  0.942E-02    2.31       0.0  T
   2    -44.6640792 -0.567060E-06  0.552E-02    2.31       1.0  T
   3    -44.6640775  0.167995E-05  0.681E-03    2.31       2.5  T
   4    -44.6640795 -0.196608E-05  0.123E-03    2.31      13.8  T
   5    -44.6640795 -0.232242E-07  0.685E-04    2.31      24.7  T
   6    -44.6640795 -0.774058E-08  0.273E-04    2.31      62.0  T
     SCC iter.                  ...        0 min,  0.005 sec
     gradient                   ...        0 min,  0.003 sec
 * total energy  :   -43.8791777 Eh     change       -0.2818269E-03 Eh
   gradient norm :     0.0049063 Eh/α   predicted    -0.1894799E-03 ( -32.77%)
   displ. norm   :     0.3795212 α      lambda       -0.3515647E-03
   maximum displ.:     0.2402970 α      in ANC's #2, #4, #1, ...

........................................................................
.............................. CYCLE    8 ..............................
........................................................................

 iter      E             dE          RMSdq      gap      omega  full diag
   1    -44.6643415 -0.446643E+02  0.120E-01    2.32       0.0  T
   2    -44.6643424 -0.890150E-06  0.706E-02    2.32       1.0  T
   3    -44.6643401  0.234127E-05  0.842E-03    2.32       2.0  T
   4    -44.6643429 -0.276932E-05  0.153E-03    2.32      11.1  T
   5    -44.6643429 -0.330684E-07  0.842E-04    2.32      20.1  T
   6    -44.6643429 -0.141199E-07  0.341E-04    2.32      49.6  T
     SCC iter.                  ...        0 min,  0.005 sec
     gradient                   ...        0 min,  0.003 sec
 * total energy  :   -43.8794467 Eh     change       -0.2690865E-03 Eh
   gradient norm :     0.0040903 Eh/α   predicted    -0.2011022E-03 ( -25.26%)
   displ. norm   :     0.3261507 α      lambda       -0.2252259E-03
   maximum displ.:     0.2113199 α      in ANC's #2, #4, #1, ...

........................................................................
.............................. CYCLE    9 ..............................
........................................................................

 iter      E             dE          RMSdq      gap      omega  full diag
   1    -44.6651408 -0.446651E+02  0.106E-01    2.32       0.0  T
   2    -44.6651415 -0.742350E-06  0.621E-02    2.33       1.0  T
   3    -44.6651390  0.254258E-05  0.875E-03    2.32       1.9  T
   4    -44.6651419 -0.293802E-05  0.139E-03    2.33      12.2  T
   5    -44.6651419 -0.316633E-07  0.730E-04    2.33      23.2  T
   6    -44.6651419 -0.946033E-08  0.314E-04    2.33      53.9  T
     SCC iter.                  ...        0 min,  0.005 sec
     gradient                   ...        0 min,  0.003 sec
 * total energy  :   -43.8796139 Eh     change       -0.1671555E-03 Eh
   gradient norm :     0.0031981 Eh/α   predicted    -0.1245928E-03 ( -25.46%)
   displ. norm   :     0.2458216 α      lambda       -0.1385183E-03
   maximum displ.:     0.1606129 α      in ANC's #2, #4, #1, ...

........................................................................
.............................. CYCLE   10 ..............................
........................................................................

 iter      E             dE          RMSdq      gap      omega  full diag
   1    -44.6663721 -0.446664E+02  0.788E-02    2.33       0.0  T
   2    -44.6663725 -0.400070E-06  0.462E-02    2.33       1.0  T
   3    -44.6663711  0.139467E-05  0.638E-03    2.33       2.6  T
   4    -44.6663727 -0.160879E-05  0.103E-03    2.33      16.5  T
   5    -44.6663727 -0.186090E-07  0.497E-04    2.33      34.0  T
   6    -44.6663727 -0.271837E-08  0.241E-04    2.33      70.3  T
     SCC iter.                  ...        0 min,  0.005 sec
     gradient                   ...        0 min,  0.003 sec
 * total energy  :   -43.8797213 Eh     change       -0.1074228E-03 Eh
   gradient norm :     0.0026572 Eh/α   predicted    -0.7344833E-04 ( -31.63%)
   displ. norm   :     0.2433024 α      lambda       -0.1184437E-03
   maximum displ.:     0.1556644 α      in ANC's #2, #4, #1, ...

........................................................................
.............................. CYCLE   11 ..............................
........................................................................

 iter      E             dE          RMSdq      gap      omega  full diag
   1    -44.6671340 -0.446671E+02  0.720E-02    2.33       0.0  T
   2    -44.6671343 -0.331789E-06  0.423E-02    2.33       1.0  T
   3    -44.6671333  0.102175E-05  0.551E-03    2.33       3.1  T
   4    -44.6671345 -0.119349E-05  0.945E-04    2.33      17.9  T
   5    -44.6671345 -0.150612E-07  0.465E-04    2.33      36.3  T
   6    -44.6671345 -0.198843E-08  0.222E-04    2.33      76.3  T
     SCC iter.                  ...        0 min,  0.005 sec
     gradient                   ...        0 min,  0.003 sec
 * total energy  :   -43.8798145 Eh     change       -0.9314452E-04 Eh
   gradient norm :     0.0026080 Eh/α   predicted    -0.6272841E-04 ( -32.65%)
   displ. norm   :     0.2525705 α      lambda       -0.1023708E-03
   maximum displ.:     0.1599878 α      in ANC's #2, #4, #1, ...

........................................................................
.............................. CYCLE   12 ..............................
........................................................................

 iter      E             dE          RMSdq      gap      omega  full diag
   1    -44.6670409 -0.446670E+02  0.698E-02    2.33       0.0  T
   2    -44.6670413 -0.326749E-06  0.410E-02    2.34       1.0  T
   3    -44.6670407  0.578366E-06  0.425E-03    2.33       4.0  T
   4    -44.6670414 -0.710243E-06  0.981E-04    2.34      17.2  T
   5    -44.6670414 -0.182835E-07  0.462E-04    2.34      36.6  T
     SCC iter.                  ...        0 min,  0.004 sec
     gradient                   ...        0 min,  0.003 sec
 * total energy  :   -43.8798959 Eh     change       -0.8141609E-04 Eh
   gradient norm :     0.0024528 Eh/α   predicted    -0.5445236E-04 ( -33.12%)
   displ. norm   :     0.2544753 α      lambda       -0.9147558E-04
   maximum displ.:     0.1597284 α      in ANC's #2, #4, #5, ...

........................................................................
.............................. CYCLE   13 ..............................
........................................................................

 iter      E             dE          RMSdq      gap      omega  full diag
   1    -44.6668132 -0.446668E+02  0.675E-02    2.34       0.0  T
   2    -44.6668136 -0.356066E-06  0.396E-02    2.34       1.0  T
   3    -44.6668132  0.411557E-06  0.361E-03    2.34       4.7  T
   4    -44.6668137 -0.544045E-06  0.861E-04    2.34      19.6  T
   5    -44.6668137 -0.991084E-08  0.466E-04    2.34      36.3  T
     SCC iter.                  ...        0 min,  0.004 sec
     gradient                   ...        0 min,  0.003 sec
 * total energy  :   -43.8799670 Eh     change       -0.7113538E-04 Eh
   gradient norm :     0.0021996 Eh/α   predicted    -0.4870348E-04 ( -31.53%)
   displ. norm   :     0.2339607 α      lambda       -0.7221824E-04
   maximum displ.:     0.1444957 α      in ANC's #2, #5, #4, ...

........................................................................
.............................. CYCLE   14 ..............................
........................................................................

 iter      E             dE          RMSdq      gap      omega  full diag
   1    -44.6665113 -0.446665E+02  0.639E-02    2.34       0.0  T
   2    -44.6665116 -0.335927E-06  0.375E-02    2.34       1.0  T
   3    -44.6665112  0.452614E-06  0.363E-03    2.34       4.7  T
   4    -44.6665118 -0.587195E-06  0.805E-04    2.34      21.0  T
   5    -44.6665118 -0.775110E-08  0.446E-04    2.34      37.9  T
     SCC iter.                  ...        0 min,  0.004 sec
     gradient                   ...        0 min,  0.003 sec
 * total energy  :   -43.8800208 Eh     change       -0.5378813E-04 Eh
   gradient norm :     0.0018469 Eh/α   predicted    -0.3808869E-04 ( -29.19%)
   displ. norm   :     0.2891014 α      lambda       -0.5049467E-04
   maximum displ.:     0.1699371 α      in ANC's #2, #5, #4, ...

........................................................................
.............................. CYCLE   15 ..............................
........................................................................

 iter      E             dE          RMSdq      gap      omega  full diag
   1    -44.6663070 -0.446663E+02  0.857E-02    2.34       0.0  T
   2    -44.6663076 -0.608631E-06  0.502E-02    2.34       1.0  T
   3    -44.6663065  0.116974E-05  0.559E-03    2.34       3.0  T
   4    -44.6663079 -0.145438E-05  0.105E-03    2.34      16.0  T
   5    -44.6663079 -0.855071E-08  0.635E-04    2.34      26.6  T
   6    -44.6663079 -0.498385E-08  0.302E-04    2.34      56.0  T
     SCC iter.                  ...        0 min,  0.005 sec
     gradient                   ...        0 min,  0.003 sec
 * total energy  :   -43.8800632 Eh     change       -0.4235650E-04 Eh
   gradient norm :     0.0020936 Eh/α   predicted    -0.2619043E-04 ( -38.17%)
   displ. norm   :     0.1920758 α      lambda        0.3340551E-04
   maximum displ.:     0.1128960 α      in ANC's #2, #5, #4, ...

........................................................................
.............................. CYCLE   16 ..............................
........................................................................

 iter      E             dE          RMSdq      gap      omega  full diag
   1    -44.6655606 -0.446656E+02  0.569E-02    2.34       0.0  T
   2    -44.6655609 -0.288458E-06  0.334E-02    2.34       1.0  T
   3    -44.6655604  0.502258E-06  0.366E-03    2.34       4.6  T
   4    -44.6655610 -0.626312E-06  0.715E-04    2.34      23.6  T
   5    -44.6655610 -0.523718E-08  0.421E-04    2.34      40.2  T
     SCC iter.                  ...        0 min,  0.004 sec
     gradient                   ...        0 min,  0.003 sec
 * total energy  :   -43.8800526 Eh     change        0.1051798E-04 Eh
   gradient norm :     0.0032210 Eh/α   predicted     0.1731865E-04 (  64.66%)
   displ. norm   :     0.1319783 α      lambda       -0.4076954E-04
   maximum displ.:     0.0783182 α      in ANC's #2, #5, #4, ...

........................................................................
.............................. CYCLE   17 ..............................
........................................................................

 iter      E             dE          RMSdq      gap      omega  full diag
   1    -44.6667879 -0.446668E+02  0.354E-02    2.34       0.0  T
   2    -44.6667880 -0.156586E-06  0.208E-02    2.34       1.0  T
   3    -44.6667879  0.132781E-06  0.204E-03    2.34       8.3  T
   4    -44.6667881 -0.171751E-06  0.574E-04    2.34      29.4  T
   5    -44.6667881 -0.703672E-08  0.284E-04    2.34      59.6  T
     SCC iter.                  ...        0 min,  0.004 sec
     gradient                   ...        0 min,  0.003 sec
 * total energy  :   -43.8800782 Eh     change       -0.2558777E-04 Eh
   gradient norm :     0.0017878 Eh/α   predicted    -0.2074405E-04 ( -18.93%)
   displ. norm   :     0.0819851 α      lambda       -0.1567532E-04
   maximum displ.:     0.0380550 α      in ANC's #3, #2, #5, ...

........................................................................
.............................. CYCLE   18 ..............................
........................................................................

 iter      E             dE          RMSdq      gap      omega  full diag
   1    -44.6671580 -0.446672E+02  0.183E-02    2.35       0.0  T
   2    -44.6671580 -0.380298E-07  0.108E-02    2.35       1.6  T
   3    -44.6671577  0.308785E-06  0.302E-03    2.35       5.6  T
   4    -44.6671581 -0.340124E-06  0.363E-04    2.35      46.5  T
   5    -44.6671581 -0.261245E-08  0.170E-04    2.35      99.3  T
     SCC iter.                  ...        0 min,  0.004 sec
     gradient                   ...        0 min,  0.003 sec
 * total energy  :   -43.8800925 Eh     change       -0.1429070E-04 Eh
   gradient norm :     0.0007990 Eh/α   predicted    -0.7865959E-05 ( -44.96%)
   displ. norm   :     0.0748048 α      lambda       -0.8358688E-05
   maximum displ.:     0.0426997 α      in ANC's #3, #2, #5, ...

........................................................................
.............................. CYCLE   19 ..............................
........................................................................

 iter      E             dE          RMSdq      gap      omega  full diag
   1    -44.6672495 -0.446672E+02  0.289E-02    2.35       0.0  T
   2    -44.6672496 -0.543969E-07  0.170E-02    2.35       1.0  T
   3    -44.6672494  0.203851E-06  0.239E-03    2.35       7.1  T
   4    -44.6672496 -0.239350E-06  0.375E-04    2.35      45.0  T
   5    -44.6672496 -0.157294E-08  0.208E-04    2.35      81.2  T
     SCC iter.                  ...        0 min,  0.004 sec
     gradient                   ...        0 min,  0.003 sec
 * total energy  :   -43.8801013 Eh     change       -0.8771246E-05 Eh
   gradient norm :     0.0009442 Eh/α   predicted    -0.4192218E-05 ( -52.20%)
   displ. norm   :     0.0802717 α      lambda       -0.6501597E-05
   maximum displ.:     0.0432289 α      in ANC's #2, #3, #5, ...

........................................................................
.............................. CYCLE   20 ..............................
........................................................................

 iter      E             dE          RMSdq      gap      omega  full diag
   1    -44.6668442 -0.446668E+02  0.309E-02    2.35       0.0  T
   2    -44.6668443 -0.697963E-07  0.181E-02    2.35       1.0  T
   3    -44.6668439  0.331748E-06  0.304E-03    2.35       5.6  T
   4    -44.6668443 -0.377344E-06  0.450E-04    2.35      37.6  T
   5    -44.6668443 -0.292712E-08  0.247E-04    2.35      68.3  T
     SCC iter.                  ...        0 min,  0.004 sec
     gradient                   ...        0 min,  0.003 sec
 * total energy  :   -43.8801071 Eh     change       -0.5833350E-05 Eh
   gradient norm :     0.0008009 Eh/α   predicted    -0.3264193E-05 ( -44.04%)
   displ. norm   :     0.0328665 α      lambda       -0.3131315E-05
   maximum displ.:     0.0260885 α      in ANC's #3, #5, #2, ...
 * RMSD in coord.:     0.5408827 α      energy gain  -0.1337611E-01 Eh

generating ANC from exact Hessian ...
Using Lindh-Hessian (1995)
 Shifting diagonal of input Hessian by    9.4147433551539841E-003
 Lowest  eigenvalues of input Hessian
    0.000000    0.000000    0.000000    0.000000    0.000000    0.000000
    0.010000    0.010478    0.010795    0.011621    0.012125    0.014115
    0.014410    0.015615    0.016780    0.017817    0.018323    0.020066
 Highest eigenvalues
    1.746081    1.900267    1.926979    1.963578    2.003990    2.031775


........................................................................
.............................. CYCLE   21 ..............................
........................................................................

 iter      E             dE          RMSdq      gap      omega  full diag
   1    -44.6670295 -0.446670E+02  0.125E-02    2.35       0.0  T
   2    -44.6670295 -0.105370E-07  0.732E-03    2.35       2.3  T
   3    -44.6670295  0.230300E-07  0.816E-04    2.35      20.7  T
   4    -44.6670295 -0.279921E-07  0.172E-04    2.35      98.1  T
     SCC iter.                  ...        0 min,  0.003 sec
     gradient                   ...        0 min,  0.003 sec
 * total energy  :   -43.8801108 Eh     change       -0.3713457E-05 Eh
   gradient norm :     0.0005801 Eh/α   predicted     0.0000000E+00 (-100.00%)
   displ. norm   :     0.0169437 α      lambda       -0.1945598E-05
   maximum displ.:     0.0105037 α      in ANC's #3, #7, #2, ...

   *** GEOMETRY OPTIMIZATION CONVERGED AFTER 21 ITERATIONS ***

------------------------------------------------------------------------
 total energy gain   :        -0.0133798 Eh       -8.3960 kcal/mol
 total RMSD          :         0.5408827 a0        0.2862 Å
 total power (kW/mol):        -1.6727967 (step) -154.4911 (real)
------------------------------------------------------------------------

 ANCopt (total)                0 d,  0 h,  0 min,  0.227 sec
 optimizer setup                ...        0 min,  0.000 sec (  0.030%)
 model hessian                  ...        0 min,  0.026 sec ( 11.502%)
 ANC generation                 ...        0 min,  0.001 sec (  0.637%)
 coordinate transformation      ...        0 min,  0.000 sec (  0.057%)
 single point calculation       ...        0 min,  0.197 sec ( 86.464%)
 optimization log               ...        0 min,  0.001 sec (  0.604%)
 hessian update                 ...        0 min,  0.000 sec (  0.076%)
 rational function              ...        0 min,  0.001 sec (  0.416%)

================
 final structure:
================
35
 xtb: 6.7.1 (edcfbbe)
C           -2.38355322124025       -1.62403206183844        1.84278977178557
C           -2.76546127735134       -0.60018672435943        0.77141904748302
C           -1.68112025190384        0.38716541624607        0.44395066808428
C           -1.16943176302594        1.23188614754746        1.38373614617064
C           -0.28267606547476        2.26110730251005        1.04971815818155
C           -0.02031121072272        2.53198541623621       -0.30156407063253
C           -0.49289160217986        1.71945699873505       -1.27788428101355
C           -1.16997084524716        0.43342866161899       -0.96074005201744
C           -0.17668677769907       -0.78258845480603       -1.18938239949894
C           -0.00100215572730       -1.06509414047437       -2.67910433095245
C            1.11996392049219       -0.52074606584838       -0.47510912621235
C            2.12690493734353        0.25345182935866       -1.04103778380669
C            3.29197292162981        0.51946991482586       -0.34529626844454
C            3.47366086270478        0.01951455148285        0.93215271630432
C            2.48089172882178       -0.75454735040283        1.50587856588928
C            1.31761149255833       -1.01934719844688        0.80688923958476
H           -2.04322834067453       -1.12815143567855        2.74771435652832
H           -3.24364113225028       -2.24254527792195        2.09166587846268
H           -1.58878391197544       -2.27633957631396        1.48917743886097
H           -3.06701201784065       -1.13084300346970       -0.13455354777398
H           -3.63881472966065       -0.04452050722003        1.13067005884703
H           -1.49678329986018        1.14684727623787        2.41133448502742
H            0.12321817298810        2.89696647742532        1.81971277115124
H            0.53513140312758        3.42313055662641       -0.55931709722287
H           -0.33932432052404        1.95800721323501       -2.31932174520859
H           -1.99736068171517        0.25971830708919       -1.66249040461879
H           -0.64965468176782       -1.65899149035226       -0.73472562741188
H           -0.94403365904040       -1.39252585719411       -3.11335700978333
H            0.33218030678465       -0.18443138212263       -3.21999792198374
H            0.73519070086343       -1.85402388059353       -2.82205294037880
H            2.00819440763729        0.65773688021835       -2.03404712961570
H            4.06190158075624        1.12428438532167       -0.80277361065814
H            4.38284919121925        0.23090980919542        1.47591356095721
H            2.61154615860043       -1.15324657063982        2.50175606217856
H            0.55032416035419       -1.62310616622309        1.26827642173755

 Bond Distances (Angstroems)
 ---------------------------
C1-C2=1.5303         C1-H17=1.0866        C1-H18=1.0882        C1-H19=1.0873        C2-C1=1.5303         C2-C3=1.5026         
C2-H20=1.0924        C2-H21=1.0957        C3-C2=1.5026         C3-C4=1.3633         C3-C8=1.4955         C4-C3=1.3633         
C4-C5=1.3990         C4-H22=1.0818        C5-C4=1.3990         C5-C6=1.4029         C5-H23=1.0779        C6-C5=1.4029         
C6-C7=1.3553         C6-H24=1.0812        C7-C6=1.3553         C7-C8=1.4876         C7-H25=1.0794        C8-C3=1.4955         
C8-C7=1.4876         C8-C9=1.5867         C8-H26=1.0987        C9-C8=1.5867         C9-C10=1.5264        C9-C11=1.5033        
C9-H27=1.0948        C10-C9=1.5264        C10-H28=1.0886       C10-H29=1.0859       C10-H30=1.0885       C11-C9=1.5033        
C11-C12=1.3905       C11-C16=1.3897       C12-C11=1.3905       C12-C13=1.3828       C12-H31=1.0787       C13-C12=1.3828       
C13-C14=1.3838       C13-H32=1.0807       C14-C13=1.3838       C14-C15=1.3834       C14-H33=1.0803       C15-C14=1.3834       
C15-C16=1.3827       C15-H34=1.0806       C16-C11=1.3897       C16-C15=1.3827       C16-H35=1.0799       H17-C1=1.0866        
H18-C1=1.0882        H19-C1=1.0873        H20-C2=1.0924        H21-C2=1.0957        H22-C4=1.0818        H23-C5=1.0779        
H24-C6=1.0812        H25-C7=1.0794        H26-C8=1.0987        H27-C9=1.0948        H28-C10=1.0886       H29-C10=1.0859       
H30-C10=1.0885       H31-C12=1.0787       H32-C13=1.0807       H33-C14=1.0803       H34-C15=1.0806       H35-C16=1.0799       
 C  H  Rav=1.0856 sigma=0.0062  Rmin=1.0779  Rmax=1.0987    19
 C  C  Rav=1.4392 sigma=0.0705  Rmin=1.3553  Rmax=1.5867    17

 selected bond angles (degree)
 --------------------
H17-C1-C2=110.85               H18-C1-C2=110.07               H18-C1-H17=108.45              H19-C1-C2=110.86               
H19-C1-H17=108.40              H19-C1-H18=108.13              C3-C2-C1=114.34                H20-C2-C1=108.94               
H20-C2-C3=109.73               H21-C2-C1=107.98               H21-C2-C3=108.27               H21-C2-H20=107.35              
C4-C3-C2=121.85                C8-C3-C2=118.14                C8-C3-C4=120.00                C5-C4-C3=121.95                
H22-C4-C3=119.51               H22-C4-C5=118.45               C6-C5-C4=119.38                H23-C5-C4=120.14               
H23-C5-C6=120.25               C7-C6-C5=120.86                H24-C6-C5=119.00               H24-C6-C7=120.10               
C8-C7-C6=121.56                H25-C7-C6=120.86               H25-C7-C8=117.49               C7-C8-C3=112.49                
C9-C8-C3=109.00                C9-C8-C7=110.30                H26-C8-C3=109.73               H26-C8-C7=110.08               
H26-C8-C9=104.96               C10-C9-C8=110.76               C11-C9-C8=109.75               C11-C9-C10=113.37              
H27-C9-C8=106.45               H27-C9-C10=107.87              H27-C9-C11=108.35              H28-C10-C9=110.20              
H29-C10-C9=111.80              H29-C10-H28=108.12             H30-C10-C9=109.89              H30-C10-H28=108.39             
H30-C10-H29=108.35             

 selected dihedral angles (degree)
 ---------------------------------
C3-C2-C1-H17= 54.78           C3-C2-C1-H18=174.76           C3-C2-C1-H19=294.34           H20-C2-C1-H17=177.94          
H20-C2-C1-H18=297.92          H20-C2-C1-H19= 57.50          H21-C2-C1-H17=294.22          H21-C2-C1-H18= 54.20          
H21-C2-C1-H19=173.78          C4-C3-C2-C1=299.34            C4-C3-C2-H20=176.61           C4-C3-C2-H21= 59.74           
C8-C3-C2-C1=119.74            C8-C3-C2-H20=357.02           C8-C3-C2-H21=240.14           C5-C4-C3-C2=188.08            
C5-C4-C3-C8=  7.67            H22-C4-C3-C2=  4.51           H22-C4-C3-C8=184.09           C6-C5-C4-C3=  7.11            
C6-C5-C4-H22=190.65           H23-C5-C4-C3=181.51           H23-C5-C4-H22=  5.05          C7-C6-C5-C4=352.53            
C7-C6-C5-H23=178.13           H24-C6-C5-C4=170.20           H24-C6-C5-H23=355.81          C8-C7-C6-C5=352.91            
C8-C7-C6-H24=175.26           H25-C7-C6-C5=176.48           H25-C7-C6-H24=358.83          C7-C8-C3-C2=159.38            
C7-C8-C3-C4=339.78            C9-C8-C3-C2=282.05            C9-C8-C3-C4=102.44            H26-C8-C3-C2= 36.48           
H26-C8-C3-C4=216.88           C3-C8-C7-C6= 20.13            C3-C8-C7-H25=196.68           C9-C8-C7-C6=258.20            
C9-C8-C7-H25= 74.75           H26-C8-C7-C6=142.84           H26-C8-C7-H25=319.39          C10-C9-C8-C3=160.79           
C10-C9-C8-C7=284.76           C10-C9-C8-H26= 43.30          C11-C9-C8-C3=286.73           C11-C9-C8-C7= 50.70           
C11-C9-C8-H26=169.23          H27-C9-C8-C3= 43.78           H27-C9-C8-C7=167.75           H27-C9-C8-H26=286.28          
H28-C10-C9-C8=295.42          H28-C10-C9-C11=171.53         H28-C10-C9-H27= 51.56         H29-C10-C9-C8= 55.69          
H29-C10-C9-C11=291.80         H29-C10-C9-H27=171.83         H30-C10-C9-C8=176.04          H30-C10-C9-C11= 52.15         
H30-C10-C9-H27=292.18         
           -------------------------------------------------
          |                Final Singlepoint                |
           -------------------------------------------------

          ...................................................
          :                      SETUP                      :
          :.................................................:
          :  # basis functions                  83          :
          :  # atomic orbitals                  83          :
          :  # shells                           51          :
          :  # electrons                        83          :
          :  max. iterations                   250          :
          :  Hamiltonian                  GFN2-xTB          :
          :  restarted?                      false          :
          :  GBSA solvation                  false          :
          :  PC potential                    false          :
          :  electronic temp.          300.0000000     K    :
          :  accuracy                    1.0000000          :
          :  -> integral cutoff          0.2500000E+02      :
          :  -> integral neglect         0.1000000E-07      :
          :  -> SCF convergence          0.1000000E-05 Eh   :
          :  -> wf. convergence          0.1000000E-03 e    :
          :  Broyden damping             0.4000000          :
          :  net charge                          0          :
          :  unpaired electrons                  0          :
          ...................................................

 iter      E             dE          RMSdq      gap      omega  full diag
   1    -44.6670295 -0.446670E+02  0.897E-05    2.35       0.0  T
   2    -44.6670295 -0.206484E-10  0.616E-05    2.35     274.5  T
   3    -44.6670295 -0.529212E-10  0.366E-05    2.35     462.0  T

   *** convergence criteria satisfied after 3 iterations ***

         #    Occupation            Energy/Eh            Energy/eV
      -------------------------------------------------------------
         1        2.0000           -0.6394273             -17.3997
       ...           ...                  ...                  ...
        36        2.0000           -0.4118512             -11.2070
        37        2.0000           -0.4108406             -11.1795
        38        2.0000           -0.4045477             -11.0083
        39        2.0000           -0.3968451             -10.7987
        40        2.0000           -0.3886811             -10.5766
        41        2.0000           -0.3843067             -10.4575
        42        1.0000           -0.2994380              -8.1481 (HOMO)
        43                         -0.2132181              -5.8020 (LUMO)
        44                         -0.2126787              -5.7873
        45                         -0.2035113              -5.5378
        46                         -0.1235678              -3.3625
        47                         -0.0843776              -2.2960
       ...                                ...                  ...
        83                          0.6759541              18.3936
      -------------------------------------------------------------
                  HL-Gap            0.0862199 Eh            2.3462 eV
             Fermi-level           -0.2991002 Eh           -8.1389 eV

 SCC (total)                   0 d,  0 h,  0 min,  0.007 sec
 SCC setup                      ...        0 min,  0.000 sec (  0.827%)
 Dispersion                     ...        0 min,  0.000 sec (  1.227%)
 classical contributions        ...        0 min,  0.000 sec (  0.317%)
 integral evaluation            ...        0 min,  0.001 sec ( 14.364%)
 iterations                     ...        0 min,  0.003 sec ( 36.983%)
 molecular gradient             ...        0 min,  0.003 sec ( 42.924%)
 printout                       ...        0 min,  0.000 sec (  3.236%)

         :::::::::::::::::::::::::::::::::::::::::::::::::::::
         ::                     SUMMARY                     ::
         :::::::::::::::::::::::::::::::::::::::::::::::::::::
         :: total energy             -43.880110837268 Eh    ::
         :: gradient norm              0.000580058286 Eh/a0 ::
         :: HOMO-LUMO gap              2.346163794204 eV    ::
         ::.................................................::
         :: SCC energy               -44.666149328706 Eh    ::
         :: -> isotropic ES            0.004477908438 Eh    ::
         :: -> anisotropic ES          0.009990074737 Eh    ::
         :: -> anisotropic XC          0.028278209323 Eh    ::
         :: -> dispersion             -0.038823764849 Eh    ::
         :: repulsion energy           0.786038491437 Eh    ::
         :: add. restraining           0.000000000000 Eh    ::
         :: total charge              -0.000000000000 e     ::
         :::::::::::::::::::::::::::::::::::::::::::::::::::::

           -------------------------------------------------
          |                Property Printout                |
           -------------------------------------------------

    * Orbital Energies and Occupations

         #    Occupation            Energy/Eh            Energy/eV
      -------------------------------------------------------------
         1        2.0000           -0.6394273             -17.3997
       ...           ...                  ...                  ...
        30        2.0000           -0.4500376             -12.2461
        31        2.0000           -0.4475613             -12.1788
        32        2.0000           -0.4421661             -12.0320
        33        2.0000           -0.4389931             -11.9456
        34        2.0000           -0.4311656             -11.7326
        35        2.0000           -0.4159106             -11.3175
        36        2.0000           -0.4118512             -11.2070
        37        2.0000           -0.4108406             -11.1795
        38        2.0000           -0.4045477             -11.0083
        39        2.0000           -0.3968451             -10.7987
        40        2.0000           -0.3886811             -10.5766
        41        2.0000           -0.3843067             -10.4575
        42        1.0000           -0.2994380              -8.1481 (HOMO)
        43                         -0.2132181              -5.8020 (LUMO)
        44                         -0.2126787              -5.7873
        45                         -0.2035113              -5.5378
        46                         -0.1235678              -3.3625
        47                         -0.0843776              -2.2960
        48                          0.0669432               1.8216
        49                          0.0804360               2.1888
        50                          0.0961139               2.6154
        51                          0.1073690               2.9217
        52                          0.1112246               3.0266
        53                          0.1227319               3.3397
       ...                                ...                  ...
        83                          0.6759541              18.3936
      -------------------------------------------------------------
                  HL-Gap            0.0862199 Eh            2.3462 eV
             Fermi-level           -0.2991002 Eh           -8.1389 eV

     #   Z          covCN         q      C6AA      α(0)
     1   6 C        3.751    -0.095    22.382     6.747
     2   6 C        3.804    -0.056    21.572     6.612
     3   6 C        2.958    -0.002    28.069     8.690
     4   6 C        2.908    -0.038    28.950     8.823
     5   6 C        2.916    -0.043    29.065     8.841
     6   6 C        2.904    -0.032    28.800     8.799
     7   6 C        2.909    -0.041    29.025     8.834
     8   6 C        3.861    -0.016    20.823     6.489
     9   6 C        3.855    -0.015    20.800     6.486
    10   6 C        3.753    -0.100    22.472     6.760
    11   6 C        2.970     0.012    27.748     8.640
    12   6 C        2.925    -0.035    28.866     8.811
    13   6 C        2.920    -0.032    28.788     8.799
    14   6 C        2.920    -0.033    28.834     8.806
    15   6 C        2.919    -0.031    28.781     8.797
    16   6 C        2.927    -0.037    28.915     8.818
    17   1 H        0.925     0.038     2.479     2.462
    18   1 H        0.925     0.033     2.539     2.492
    19   1 H        0.925     0.031     2.565     2.505
    20   1 H        0.924     0.032     2.563     2.504
    21   1 H        0.924     0.040     2.449     2.447
    22   1 H        0.925     0.025     2.656     2.549
    23   1 H        0.926     0.022     2.697     2.568
    24   1 H        0.925     0.024     2.678     2.559
    25   1 H        0.926     0.022     2.700     2.569
    26   1 H        0.923     0.042     2.418     2.432
    27   1 H        0.924     0.038     2.481     2.463
    28   1 H        0.925     0.033     2.542     2.493
    29   1 H        0.925     0.040     2.448     2.447
    30   1 H        0.925     0.037     2.490     2.468
    31   1 H        0.926     0.031     2.567     2.506
    32   1 H        0.926     0.026     2.640     2.541
    33   1 H        0.926     0.026     2.640     2.541
    34   1 H        0.926     0.026     2.639     2.540
    35   1 H        0.926     0.026     2.637     2.539

 Mol. C6AA /au·bohr⁶  :      12658.409868
 Mol. C8AA /au·bohr⁸  :     299455.374793
 Mol. α(0) /au        :        177.378129


Wiberg/Mayer (AO) data.
largest (>0.10) Wiberg bond orders for each atom

 ---------------------------------------------------------------------------
     #   Z sym  total        # sym  WBO       # sym  WBO       # sym  WBO
 ---------------------------------------------------------------------------
     1   6 C    3.996 --     2 C    1.002    18 H    0.987    17 H    0.986
                            19 H    0.983
     2   6 C    3.997 --     3 C    1.021     1 C    1.002    20 H    0.976
                            21 H    0.958
     3   6 C    3.917 --     4 C    1.571     8 C    1.030     2 C    1.021
     4   6 C    3.992 --     3 C    1.571     5 C    1.336    22 H    0.964
     5   6 C    3.882 --     4 C    1.336     6 C    1.309    23 H    0.974
     6   6 C    3.993 --     7 C    1.628     5 C    1.309    24 H    0.968
     7   6 C    3.926 --     6 C    1.628     8 C    1.045    25 H    0.970
     8   6 C    3.994 --     7 C    1.045     3 C    1.030    26 H    0.940
                             9 C    0.875
     9   6 C    3.986 --    11 C    1.011    10 C    1.006    27 H    0.963
                             8 C    0.875
    10   6 C    3.996 --     9 C    1.006    28 H    0.986    30 H    0.984
                            29 H    0.983
    11   6 C    3.988 --    16 C    1.410    12 C    1.404     9 C    1.011
                            14 C    0.109
    12   6 C    3.992 --    13 C    1.448    11 C    1.404    31 H    0.966
                            15 C    0.110
    13   6 C    3.993 --    12 C    1.448    14 C    1.436    32 H    0.971
                            16 C    0.109
    14   6 C    3.992 --    15 C    1.438    13 C    1.436    33 H    0.972
                            11 C    0.109
    15   6 C    3.992 --    16 C    1.445    14 C    1.438    34 H    0.971
                            12 C    0.110
    16   6 C    3.992 --    15 C    1.445    11 C    1.410    35 H    0.965
                            13 C    0.109
    17   1 H    0.999 --     1 C    0.986
    18   1 H    0.998 --     1 C    0.987
    19   1 H    0.999 --     1 C    0.983
    20   1 H    0.999 --     2 C    0.976
    21   1 H    0.998 --     2 C    0.958
    22   1 H    0.999 --     4 C    0.964
    23   1 H    0.999 --     5 C    0.974
    24   1 H    0.999 --     6 C    0.968
    25   1 H    0.999 --     7 C    0.970
    26   1 H    0.997 --     8 C    0.940
    27   1 H    0.998 --     9 C    0.963
    28   1 H    0.998 --    10 C    0.986
    29   1 H    0.998 --    10 C    0.983
    30   1 H    0.997 --    10 C    0.984
    31   1 H    0.999 --    12 C    0.966
    32   1 H    0.999 --    13 C    0.971
    33   1 H    0.999 --    14 C    0.972
    34   1 H    0.999 --    15 C    0.971
    35   1 H    0.999 --    16 C    0.965
 ---------------------------------------------------------------------------

Topologies differ in total number of bonds
Writing topology from bond orders to xtbtopo.mol

molecular dipole:
                 x           y           z       tot (Debye)
 q only:       -0.308      -0.316      -0.195
   full:       -0.333      -0.316      -0.190       1.262
molecular quadrupole (traceless):
                xx          xy          yy          xz          yz          zz
 q only:        0.232       1.812      -1.789      -0.260      -0.460       1.557
  q+dip:       -0.118       6.398      -3.938       0.474      -1.468       4.057
   full:        0.163       3.503      -2.562      -0.045      -0.748       2.399

           -------------------------------------------------
          |                Geometry Summary                 |
           -------------------------------------------------

      molecular mass/u    :      211.3226486
   center of mass at/Å    :        0.1909732       0.1557255       0.0242846
  moments of inertia/u·Å² :        0.6814736E+03   0.1085031E+04   0.1127338E+04
rotational constants/cm⁻¹ :        0.2473703E-01   0.1553654E-01   0.1495349E-01

 * 31 selected distances

     #   Z          #   Z                                           value/Å
     1   6 C        2   6 C                                       1.5303427 (max)
     3   6 C        4   6 C                                       1.3632958
     4   6 C        5   6 C                                       1.3989997
     5   6 C        6   6 C                                       1.4029164
     6   6 C        7   6 C                                       1.3552624
     9   6 C       10   6 C                                       1.5264162
    11   6 C       12   6 C                                       1.3905352
    12   6 C       13   6 C                                       1.3828252
    13   6 C       14   6 C                                       1.3837782
    14   6 C       15   6 C                                       1.3834465
    11   6 C       16   6 C                                       1.3896718
    15   6 C       16   6 C                                       1.3827242
     1   6 C       17   1 H                                       1.0865576
     1   6 C       18   1 H                                       1.0882322
     1   6 C       19   1 H                                       1.0872926
     2   6 C       20   1 H                                       1.0923898
     2   6 C       21   1 H                                       1.0957065
     4   6 C       22   1 H                                       1.0818268
     5   6 C       23   1 H                                       1.0779420 (min)
     6   6 C       24   1 H                                       1.0812460
     7   6 C       25   1 H                                       1.0793893
     8   6 C       26   1 H                                       1.0987279
     9   6 C       27   1 H                                       1.0947575
    10   6 C       28   1 H                                       1.0886209
    10   6 C       29   1 H                                       1.0858838
    10   6 C       30   1 H                                       1.0884965
    12   6 C       31   1 H                                       1.0787059
    13   6 C       32   1 H                                       1.0806833
    14   6 C       33   1 H                                       1.0802719
    15   6 C       34   1 H                                       1.0806497
    16   6 C       35   1 H                                       1.0798764

 * 2 distinct bonds (by element types)

   Z      Z             #   av. dist./Å        max./Å        min./Å
   1 H    6 C          19     1.0856451     1.0987279     1.0779420
   6 C    6 C          12     1.4075179     1.5303427     1.3552624


optimized geometry written to: xtbopt.xyz


           -------------------------------------------------
          | TOTAL ENERGY              -43.880110837268 Eh   |
          | GRADIENT NORM               0.000580058286 Eh/α |
          | HOMO-LUMO GAP               2.346163794204 eV   |
           -------------------------------------------------

------------------------------------------------------------------------
 * finished run on 2025/09/15 at 14:52:51.275     
------------------------------------------------------------------------
 total:
 * wall-time:     0 d,  0 h,  0 min,  0.277 sec
 *  cpu-time:     0 d,  0 h,  0 min,  1.088 sec
 * ratio c/w:     3.934 speedup
 SCF:
 * wall-time:     0 d,  0 h,  0 min,  0.023 sec
 *  cpu-time:     0 d,  0 h,  0 min,  0.087 sec
 * ratio c/w:     3.824 speedup
 ANC optimizer:
 * wall-time:     0 d,  0 h,  0 min,  0.235 sec
 *  cpu-time:     0 d,  0 h,  0 min,  0.941 sec
 * ratio c/w:     4.000 speedup

