35
 energy: -43.866731014672 gnorm: 0.072785689741 xtb: 6.7.1 (edcfbbe)
C           -2.27000000000000       -1.69430000000000        1.77300000000000
C           -2.78050000000000       -0.58950000000000        0.86130000000000
C           -1.75060000000000        0.46460000000000        0.52040000000000
C           -1.49350000000000        1.47180000000000        1.37920000000000
C           -0.64030000000000        2.55690000000000        0.96270000000000
C           -0.33610000000000        2.79290000000000       -0.42540000000000
C           -0.57530000000000        1.81020000000000       -1.30740000000000
C           -1.14530000000000        0.45030000000000       -0.89990000000000
C           -0.13240000000000       -0.72400000000000       -1.12950000000000
C            0.03660000000000       -1.02330000000000       -2.63090000000000
C            1.21670000000000       -0.55570000000000       -0.42870000000000
C            2.26910000000000        0.18350000000000       -0.99310000000000
C            3.49040000000000        0.32230000000000       -0.32810000000000
C            3.68170000000000       -0.27500000000000        0.91410000000000
C            2.65070000000000       -1.00920000000000        1.49190000000000
C            1.43020000000000       -1.14730000000000        0.82620000000000
H           -1.78960000000000       -1.28990000000000        2.66980000000000
H           -3.10380000000000       -2.32710000000000        2.09490000000000
H           -1.55490000000000       -2.33940000000000        1.25670000000000
H           -3.18660000000000       -1.03280000000000       -0.05560000000000
H           -3.63380000000000       -0.10260000000000        1.35200000000000
H           -1.94270000000000        1.52330000000000        2.36530000000000
H           -0.31490000000000        3.28100000000000        1.70100000000000
H            0.08200000000000        3.74750000000000       -0.72230000000000
H           -0.34960000000000        1.96900000000000       -2.35710000000000
H           -1.99890000000000        0.29030000000000       -1.57570000000000
H           -0.58700000000000       -1.63820000000000       -0.72490000000000
H           -0.92860000000000       -1.28680000000000       -3.07770000000000
H            0.43540000000000       -0.17210000000000       -3.19090000000000
H            0.71410000000000       -1.87090000000000       -2.78520000000000
H            2.15090000000000        0.67440000000000       -1.95510000000000
H            4.28990000000000        0.90240000000000       -0.78080000000000
H            4.62990000000000       -0.16490000000000        1.43220000000000
H            2.79250000000000       -1.47400000000000        2.46370000000000
H            0.64410000000000       -1.72360000000000        1.30390000000000
35
 energy: -43.875225301232 gnorm: 0.032742180443 xtb: 6.7.1 (edcfbbe)
C           -2.26548321924272       -1.69157882870851        1.76730474101343
C           -2.76832214475943       -0.58371270693380        0.84466825406750
C           -1.74313748655443        0.46817734925646        0.49230094668553
C           -1.46059084979858        1.47576145416858        1.35438038147542
C           -0.64617480973083        2.56670393654452        0.97047180651481
C           -0.31280141552469        2.75562203362364       -0.39192949310386
C           -0.55870490187122        1.77748758184832       -1.28772462735759
C           -1.14285446260659        0.44484453010387       -0.90244945505277
C           -0.13282015536431       -0.72977908698114       -1.12466137420113
C            0.03907578593304       -1.01436020564788       -2.62323341237783
C            1.19829074852823       -0.52953380579270       -0.41849739789854
C            2.24527076843032        0.19783985214208       -0.98206740120630
C            3.46371153812629        0.32421804388560       -0.32944479599376
C            3.66184557900786       -0.27163053788756        0.90460330132752
C            2.63396183488521       -0.99943245626588        1.47843788973533
C            1.41902578621712       -1.12683028003889        0.82139367628984
H           -1.78802298444249       -1.27611393332539        2.65409724292252
H           -3.09749325018405       -2.31841913074427        2.09248581636853
H           -1.54845943541204       -2.33396993662466        1.25893801037395
H           -3.16758516878681       -1.03765156275116       -0.06773552312118
H           -3.60889268601140       -0.08845917520578        1.34630790039166
H           -1.88919829299126        1.50049898391470        2.34828900932799
H           -0.35027827323472        3.30262763668260        1.70370759740940
H            0.10079922565616        3.70796000202279       -0.69322630929954
H           -0.35633123731893        1.93565866109200       -2.33925021815783
H           -1.97969734093829        0.25206735607419       -1.59177977271563
H           -0.59606241694748       -1.62593799621126       -0.69462325071623
H           -0.92217995252493       -1.27972586697428       -3.06596364834496
H            0.43547603210498       -0.16237092392459       -3.17219259064098
H            0.71891974030737       -1.85472340614952       -2.76697012201288
H            2.12835453885543        0.67195792710388       -1.94627350053549
H            4.26328215888721        0.89271333044012       -0.78673555873257
H            4.61053256761349       -0.16904377308514        1.41623773783178
H            2.77818977261368       -1.47113286111255        2.44199426389974
H            0.63815440707885       -1.70993220453834        1.28913987583408
35
 energy: -43.877645685813 gnorm: 0.009345827269 xtb: 6.7.1 (edcfbbe)
C           -2.25573418641730       -1.68589139863928        1.76436438699056
C           -2.75898862472981       -0.57984888842228        0.83162730589864
C           -1.73281476270990        0.46229098778764        0.47309325586651
C           -1.42088467819558        1.46247650741268        1.34517715872986
C           -0.64107130804884        2.56156477908445        0.97724251895569
C           -0.29419853334025        2.72851015594313       -0.36965813688644
C           -0.55538682286547        1.76175897692776       -1.28105286887069
C           -1.15106549306105        0.45023742613219       -0.90763314897687
C           -0.13955739476978       -0.73299665670631       -1.11935968666966
C            0.04137060580766       -1.01502784224228       -2.61188036836094
C            1.18069003996307       -0.52211856753192       -0.41749258570982
C            2.21823832905440        0.21063860434136       -0.97972443425855
C            3.43350673490065        0.33780664532153       -0.33178823540210
C            3.63939721170780       -0.26011954648594        0.89785587714529
C            2.61307273082719       -0.98515931118682        1.47356588316829
C            1.40246722663307       -1.11382723727337        0.81978246318133
H           -1.78132972374466       -1.25853731232191        2.64407306252918
H           -3.09016495832925       -2.30477217491360        2.08879729627645
H           -1.53841000800183       -2.32902302979770        1.26157197538430
H           -3.15220635450363       -1.03904447931482       -0.07869451983805
H           -3.59021037364959       -0.07648286313832        1.33670411612863
H           -1.83810809783280        1.45536186724106        2.34496615105506
H           -0.38430000356932        3.31666559650774        1.70434500187020
H            0.15956389922642        3.66216544280344       -0.67314379636787
H           -0.33547098760459        1.91385859756951       -2.32701578355415
H           -1.97070870229158        0.22773452819857       -1.61266739117637
H           -0.60617676742121       -1.61942356505506       -0.67714864498139
H           -0.91478245190400       -1.28216679868408       -3.05771835740125
H            0.43383299436964       -0.15533218515075       -3.14490251687755
H            0.72941543191368       -1.84598192592556       -2.75153906556085
H            2.09308646780451        0.68571037857536       -1.93943129683764
H            4.23240993284679        0.89841890613449       -0.79527277271000
H            4.59195468185008       -0.16811468981582        1.39970402610307
H            2.76124157846597       -1.46548671832118        2.43000018858093
H            0.62112236761963       -1.69604420905369        1.28325294257618
35
 energy: -43.878244265665 gnorm: 0.006577594411 xtb: 6.7.1 (edcfbbe)
C           -2.25006955557057       -1.68113047597923        1.76597926690617
C           -2.75609598143326       -0.58103755587518        0.82598312379593
C           -1.73362847258223        0.46007886022502        0.46462218919294
C           -1.40616320120427        1.44997348006785        1.34625402451632
C           -0.63052414959795        2.55176006186120        0.98212488113821
C           -0.26154967631181        2.71178886183678       -0.36084974703032
C           -0.53840888902356        1.75495558468996       -1.28047227760873
C           -1.15949446368632        0.45402137636866       -0.91527322552299
C           -0.14816781927578       -0.73849303602022       -1.12072846930824
C            0.04036580149519       -1.02146438230933       -2.61080777502580
C            1.16450273131376       -0.51663282905352       -0.41525072237167
C            2.19627079219747        0.22479063780856       -0.97829475692971
C            3.41341978332004        0.35194275479067       -0.33424371512351
C            3.62493556663613       -0.25030168845187        0.89310781192948
C            2.60066318371953       -0.97651296120469        1.47315545450270
C            1.38814263489980       -1.10610601368090        0.82318226675331
H           -1.77604691062621       -1.24474206348916        2.64138654621095
H           -3.08369303293721       -2.29863935395288        2.09345794894241
H           -1.53156249801303       -2.32514756917115        1.26623163502793
H           -3.14614670148047       -1.04493466508491       -0.08285699825248
H           -3.58730730530994       -0.07686590175405        1.32794908152573
H           -1.80817977409673        1.41638962407813        2.35332209852856
H           -0.38934412795750        3.31196464724683        1.70842736705065
H            0.21128392869328        3.63616152977586       -0.66603614989737
H           -0.30702319970387        1.90894588280448       -2.32329407910382
H           -1.97201347381681        0.22924992037822       -1.62742689854955
H           -0.61940034317129       -1.61982568319961       -0.67457306501528
H           -0.91069550257386       -1.29569323990987       -3.06298949473224
H            0.42952759514538       -0.15693412572291       -3.13857544225049
H            0.73745016242454       -1.84569456325733       -2.74594546392399
H            2.06467149950144        0.70202866742311       -1.93628978810496
H            4.20829439686958        0.91735384267854       -0.79857386246654
H            4.57870721309054       -0.15770058261158        1.39126326160047
H            2.75042379613298       -1.45481862379561        2.43013046984234
H            0.60665599293316       -1.68893041750943        1.28590450375359
35
 energy: -43.878647021818 gnorm: 0.005465159835 xtb: 6.7.1 (edcfbbe)
C           -2.24594090704945       -1.67390579159482        1.77005911795119
C           -2.75424781457390       -0.58440771627380        0.81848102908140
C           -1.73432192504189        0.45707117472223        0.45635839709920
C           -1.38847547504697        1.43182254233704        1.34968410021944
C           -0.60716404657657        2.53144843153040        0.98972545450612
C           -0.22751634201150        2.69522520919271       -0.35084305123057
C           -0.52076242498193        1.75194693193937       -1.27968242071344
C           -1.16780300452880        0.45903939560865       -0.92629847065552
C           -0.15883080195054       -0.74535470594961       -1.12522597726801
C            0.03747723119087       -1.03283985509049       -2.61265962491739
C            1.14794450874633       -0.51642648758164       -0.41580706629377
C            2.17170594486690        0.23902215858723       -0.97795572758458
C            3.38880071747410        0.37431583880519       -0.33494267721662
C            3.60630746552652       -0.23161985232219        0.89019822878049
C            2.58668750906567       -0.96265793612331        1.47422059683338
C            1.37362939886202       -1.10080727286228        0.82556188875957
H           -1.77234872011518       -1.22655005843081        2.64056432663509
H           -3.07743096699228       -2.29085003518005        2.10401748093941
H           -1.52542079883989       -2.32082674879640        1.27636158385369
H           -3.13885474639810       -1.05692864714857       -0.08843855490433
H           -3.59036891814589       -0.08095964609712        1.31212486331968
H           -1.78508790749154        1.38137452369690        2.35641770848060
H           -0.37314498649885        3.29131668389872        1.71685720735122
H            0.27562572340798        3.60617283888678       -0.65091809612163
H           -0.26980807647908        1.90859250168716       -2.31792915617464
H           -1.97610936283079        0.24363739168542       -1.64317506371724
H           -0.63677878337755       -1.62152832875566       -0.67722878907881
H           -0.90770084952901       -1.31962954880033       -3.07020098514288
H            0.42018662509159       -0.16537276231449       -3.14117759889739
H            0.74550291849878       -1.84953285660560       -2.74128129609576
H            2.03152308889845        0.72134383990920       -1.93265196912410
H            4.17779451369994        0.94849304290737       -0.79928560764859
H            4.56243237123235       -0.13840619688660        1.38355129456711
H            2.73964033631374       -1.43841126953183        2.43222508894666
H            0.59265850558468       -1.68400678904804        1.28929376546102
35
 energy: -43.878895825828 gnorm: 0.005357903765 xtb: 6.7.1 (edcfbbe)
C           -2.24602860425115       -1.66546280682789        1.77503943926433
C           -2.75418763866387       -0.58789491334405        0.81009374859712
C           -1.73537365527271        0.45549652171570        0.44980477765766
C           -1.37847400731547        1.41819125297246        1.35087788717432
C           -0.58171747905553        2.51037889845337        0.99835516500899
C           -0.19767486048134        2.68055120825997       -0.34077202226335
C           -0.50613633409593        1.75037077143307       -1.27756646938837
C           -1.16987593048965        0.46256893690327       -0.93428432156197
C           -0.16643476965897       -0.75042074109909       -1.13124417882705
C            0.03329063623181       -1.04480324194506       -2.61665253518204
C            1.13730857387462       -0.51819283795604       -0.41862776908509
C            2.15467754695237        0.24830482115196       -0.97891526099113
C            3.36986289657289        0.39474074815158       -0.33437465128147
C            3.59111667137313       -0.21203908628119        0.88975873540779
C            2.57676284096158       -0.95024230373158        1.47420555942693
C            1.36477203842506       -1.09867696396278        0.82452850172977
H           -1.77421338113232       -1.20833567099715        2.64179596183193
H           -3.07603705654164       -2.28145557778520        2.11514967832667
H           -1.52310504061896       -2.31661677500991        1.28962238853379
H           -3.12980282429174       -1.07036885845293       -0.09580693808064
H           -3.59853884830711       -0.08544917259848        1.29163874301904
H           -1.77044822219988        1.35885584949429        2.35767893376406
H           -0.34091637243216        3.26234226372221        1.73017348806192
H            0.32039662121627        3.58427308490628       -0.63308879428961
H           -0.24855126386327        1.91199706381995       -2.31354239085604
H           -1.97731046844801        0.25954445639902       -1.65362204959931
H           -0.64998583269692       -1.62267636161621       -0.68208937107777
H           -0.90824968200342       -1.34412990780440       -3.07427552215336
H            0.40829270878446       -0.17727399393958       -3.15116012289417
H            0.74943089650700       -1.85580411328271       -2.73967360992828
H            2.00935511529098        0.73189784419372       -1.93227565526754
H            4.15275474531652        0.97958754193840       -0.79638501040470
H            4.54675050892184       -0.11235938393650        1.38290823552137
H            2.73186478924907       -1.42198182568600        2.43407842987106
H            0.58622568214270       -1.68511672725744        1.28864699993514
35
 energy: -43.879177652749 gnorm: 0.004906406953 xtb: 6.7.1 (edcfbbe)
C           -2.25131818504091       -1.65359975230014        1.78212271616651
C           -2.75492784913198       -0.59234661900687        0.79741469369184
C           -1.73448173137848        0.45239209016458        0.44282966399053
C           -1.36587284744052        1.40056886139115        1.35252141695715
C           -0.54857309752917        2.48288178625015        1.01042955228759
C           -0.16728548064860        2.66363124954254       -0.32798829900998
C           -0.49303150933680        1.74947601481501       -1.27426839660135
C           -1.16831889306056        0.46517310456229       -0.94231361107056
C           -0.17363005230823       -0.75551687213254       -1.13829505124638
C            0.02635316486453       -1.05890355928277       -2.62185216441161
C            1.12898211865390       -0.52142093347688       -0.42412455173038
C            2.13937395566151        0.25601434638154       -0.98207467763847
C            3.35014136687800        0.41962181134237       -0.33314918130970
C            3.57403719187929       -0.18402135538493        0.89183470932858
C            2.56728637576473       -0.93459750091770        1.47318412207606
C            1.35863678943953       -1.09826321987611        0.81996457333710
H           -1.78388974826037       -1.18357117788066        2.64459759151327
H           -3.08107888818224       -2.26674190875101        2.12871600078290
H           -1.52444206002668       -2.31116656957789        1.31042482065119
H           -3.11465270386338       -1.08806472475370       -0.10833194319740
H           -3.61140677601077       -0.08990162493432        1.25957351975604
H           -1.75833673555834        1.33886571681848        2.35735506437063
H           -0.28849736116000        3.21974706733395        1.75133250541411
H            0.36697799524306        3.56054601030008       -0.60818894111614
H           -0.23608016067496        1.91886718643797       -2.30911031017618
H           -1.97641204065678        0.27646109256178       -1.66400593987069
H           -0.66211129425178       -1.62371198269212       -0.68667140881198
H           -0.91246893489782       -1.37381419065931       -3.07500975612247
H            0.39055447834441       -0.19268732576558       -3.16661526614422
H            0.75088675767467       -1.86350465539369       -2.73895559780499
H            1.99068371243032        0.73636308705822       -1.93633033500196
H            4.12591469307171        1.01702465504907       -0.79154111914333
H            4.52681865623013       -0.07173573376159        1.38832946135561
H            2.72488145056848       -1.40221039629567        2.43483162695050
H            0.58508764271438       -1.69205397716429        1.28336451177817
35
 energy: -43.879446739284 gnorm: 0.004090378848 xtb: 6.7.1 (edcfbbe)
C           -2.26370691538647       -1.63931176337380        1.79126574062121
C           -2.75647780216867       -0.59687697533280        0.78163979364470
C           -1.73214044687557        0.44773229483098        0.43529921957027
C           -1.34894694784423        1.37909866907378        1.35449098311416
C           -0.50805534237566        2.44859013400707        1.02482283322531
C           -0.13358689583007        2.64234325475160       -0.31313805562813
C           -0.48068060351723        1.74745942940288       -1.27066052466121
C           -1.16471491082650        0.46574016893293       -0.94995136810662
C           -0.17986573717303       -0.76043626419876       -1.14579362697910
C            0.01680039049485       -1.07377541713839       -2.62784125194345
C            1.12350758696538       -0.52520414233518       -0.43256434584354
C            2.12673782677918        0.26216695324456       -0.98832246047031
C            3.33014944148333        0.44836373076659       -0.33176450182624
C            3.55483640784995       -0.14674358239294        0.89701377516243
C            2.55783332731634       -0.91496935113555        1.47159628446892
C            1.35535679002408       -1.09862564722789        0.81189945418264
H           -1.80382173140978       -1.15406429434402        2.64924909606075
H           -3.09560671009283       -2.24695973550156        2.14240145403095
H           -1.53146359498582       -2.30480546691502        1.33853008287173
H           -3.09424428476625       -1.10745458528214       -0.12456357076897
H           -3.62678252449812       -0.09275871327131        1.21804403676325
H           -1.74112214947291        1.31704543555128        2.35959685069499
H           -0.21908431981292        3.16405456177958        1.77832743784334
H            0.41271982120227        3.53486984847661       -0.57992505283365
H           -0.23337399627508        1.92836142176118       -2.30595142036726
H           -1.97432903188128        0.28994170929494       -1.67374352278623
H           -0.67099031695699       -1.62470840601619       -0.68945216158927
H           -0.92055106651621       -1.40463106022208       -3.07257076045305
H            0.36768154236625       -0.20871835386512       -3.18360708098654
H            0.74976723585958       -1.87105481425159       -2.74094417739880
H            1.97700502026652        0.73431628833492       -1.94622559229807
H            4.09854962921065        1.05829424462087       -0.78589484998945
H            4.50138936222520       -0.01449598069112        1.40142485630264
H            2.71784969570811       -1.37888398552849        2.43460670882828
H            0.58916125091422       -1.70409960580387        1.27270571754432
35
 energy: -43.879613894812 gnorm: 0.003198126933 xtb: 6.7.1 (edcfbbe)
C           -2.28034251122086       -1.62845859297024        1.79944413409997
C           -2.75807156830400       -0.59942019710932        0.76949384075330
C           -1.72708084554126        0.44133247417495        0.43104996467474
C           -1.32822515832471        1.35805864443055        1.35790342837532
C           -0.47228746916210        2.41747569014371        1.03592130256021
C           -0.10779141482827        2.62315244304130       -0.30227107651907
C           -0.47319467266073        1.74450803501186       -1.26833614572676
C           -1.16094098725037        0.46362808884241       -0.95441596714203
C           -0.18292697578170       -0.76498134368891       -1.15130317927158
C            0.00789586914556       -1.08349029432354       -2.63310144624606
C            1.12192189053613       -0.52758470980740       -0.44080588994432
C            2.11996021251290        0.26610655226182       -0.99558357957597
C            3.31571950605436        0.47185570892170       -0.33128282482616
C            3.53900864912901       -0.11236573063522        0.90297078801834
C            2.55072944525613       -0.89672650402494        1.47058533056285
C            1.35512884144469       -1.09824903941022        0.80403088676810
H           -1.82915873339797       -1.13217368369130        2.65511036117142
H           -3.11703735184070       -2.22949052736100        2.14973259614480
H           -1.54331787408651       -2.30039448447638        1.36438738263936
H           -3.07736067537578       -1.12018003657824       -0.13702970990723
H           -3.63720249045638       -0.09163397743738        1.18363316990190
H           -1.72076708562499        1.29780226997989        2.36366700006493
H           -0.15937606379412        3.11462541474720        1.79861928784107
H            0.44681607276495        3.51342695385790       -0.56026735162205
H           -0.23776290349484        1.93631873083383       -2.30466567414722
H           -1.97195151032269        0.29423198497489       -1.67888007287015
H           -0.67327493027160       -1.62697922880837       -0.68966215991258
H           -0.92945115765657       -1.42416561402328       -3.06959241268942
H            0.34794621898831       -0.21816135794827       -3.19488746450209
H            0.74648768381520       -1.87492819377401       -2.74659293498275
H            1.97164336816180        0.72838286922555       -1.95847933809486
H            4.07882551300279        1.09024400086929       -0.78220108069253
H            4.47772978225506        0.04041004348206        1.41682111120942
H            2.71188767859521       -1.35742379061766        2.43477234359272
H            0.59562164773432       -1.71495259811081        1.26121538029434
35
 energy: -43.879721317592 gnorm: 0.002657294480 xtb: 6.7.1 (edcfbbe)
C           -2.29838828746391       -1.62248085742422        1.80622736412302
C           -2.75971434940001       -0.59987617650899        0.76309063467182
C           -1.72106330365604        0.43469820087421        0.43038927270661
C           -1.30854168269324        1.34093422556656        1.36156028926006
C           -0.44398768889870        2.39313789708123        1.04263573097350
C           -0.08939288858409        2.60782073074128       -0.29658661090179
C           -0.46940158230883        1.74070004211653       -1.26728334488128
C           -1.15808918946851        0.45959697478285       -0.95574152216749
C           -0.18259980752865       -0.76905323116795       -1.15524265941807
C            0.00158716409962       -1.08740247753609       -2.63789136675620
C            1.12374625180310       -0.52964754481338       -0.44807485838638
C            2.11875483833221        0.26744759171837       -1.00266912180860
C            3.30766905262801        0.48813993228954       -0.33152356614513
C            3.52790425259179       -0.08541240990357        0.90841061292891
C            2.54598190093382       -0.88099695819657        1.47106732352447
C            1.35683105905462       -1.09680303191865        0.79816671332597
H           -1.85644075389744       -1.12106188644886        2.66297482289003
H           -3.14132569372523       -2.21792170830164        2.15020409681322
H           -1.55743242212638       -2.29859209507564        1.38533367087888
H           -3.06724610006925       -1.12578451036193       -0.14348200737587
H           -3.64219630906734       -0.08669334886733        1.16122391623502
H           -1.69755742200182        1.28065684306096        2.36988673459010
H           -0.11739476968277        3.07887955963074        1.80937991703810
H            0.46552171687964        3.49860633616994       -0.55192347510280
H           -0.24596701902218        1.94118190214770       -2.30470728788338
H           -1.97056300669031        0.29182340419668       -1.67915789530310
H           -0.67014720426008       -1.63072366480587       -0.68991619891711
H           -0.93701803937731       -1.43119537332810       -3.06818139706910
H            0.33464324936408       -0.22029621416218       -3.20045083788388
H            0.74247837729940       -1.87553284866136       -2.75573369166710
H            1.97305773250074        0.72141446825573       -1.97000798313493
H            4.06796057547908        1.11072341332518       -0.78073550218549
H            4.45937174870330        0.08335109483694        1.43011038728372
H            2.70702765797649       -1.33864391944872        2.43658213069540
H            0.60173194227645       -1.72119435986058        1.25206570904886
35
 energy: -43.879814462107 gnorm: 0.002608301490 xtb: 6.7.1 (edcfbbe)
C           -2.31982065055560       -1.61904510278131        1.81394913594413
C           -2.76165708778256       -0.59947151421213        0.75978518133492
C           -1.71308339570181        0.42617684949057        0.43215941346816
C           -1.28536063759176        1.32249027841399        1.36647643290544
C           -0.41609156765776        2.36981347520194        1.04744769060162
C           -0.07413353343255        2.59333953797066       -0.29389201999260
C           -0.46843314325307        1.73597349366543       -1.26713429952899
C           -1.15605499675284        0.45389256443908       -0.95573887927526
C           -0.18024656682743       -0.77398279659223       -1.15950793282109
C           -0.00319213614327       -1.08797790593889       -2.64387306111354
C            1.12665325690049       -0.53098642549397       -0.45501783509761
C            2.11965460500520        0.26820508420363       -1.01009096944789
C            3.30212738923302        0.50208981890036       -0.33271601599830
C            3.51829363572541       -0.06043803364805        0.91314596771538
C            2.54144982861498       -0.86404295829301        1.47278306593595
C            1.35851692432978       -1.09287706838468        0.79394053073812
H           -1.89048394284602       -1.11560317965445        2.67559506498800
H           -3.17044920548165       -2.21018434511007        2.14588266283745
H           -1.57375441516429       -2.29806492392411        1.40762437455421
H           -3.06056611250369       -1.12877937879282       -0.14697121068472
H           -3.64492756421103       -0.07816736730858        1.14341503625164
H           -1.66822622502589        1.26056829623031        2.37769948000248
H           -0.07910579104541        3.04719223520634        1.81566107131798
H            0.48203814332472        3.48452785824908       -0.54935800878540